ITEM: TIMESTEP
0
ITEM: NUMBER OF ATOMS
832
ITEM: BOX BOUNDS pp pp ff
0.0000000000000000e+00 3.2200000000000003e+01
0.0000000000000000e+00 3.4399999999999999e+01
-6.3250000000000000e+01 6.3250000000000000e+01
ITEM: ATOMS id q
1281 0
1282 0
1283 0
1284 0
1285 0
1286 0
1287 0
1288 0
1289 0
1290 0
1291 0
1292 0
1293 0
1294 0
1295 0
1296 0
1297 0
1298 0
1299 0
1300 0
1301 0
1302 0
1303 0
1304 0
1305 0
1306 0
1307 0
1308 0
1309 0
1310 0
1311 0
1312 0
1313 0
1314 0
1315 0
1316 0
1317 0
1318 0
1319 0
1320 0
1321 0
1322 0
1323 0
1324 0
1325 0
1326 0
1327 0
1328 0
1329 0
1330 0
1331 0
1332 0
1333 0
1334 0
1335 0
1336 0
1337 0
1338 0
1339 0
1340 0
1341 0
1342 0
1343 0
1344 0
1345 0
1346 0
1347 0
1348 0
1349 0
1350 0
1351 0
1352 0
1353 0
1354 0
1355 0
1356 0
1357 0
1358 0
1359 0
1360 0
1361 0
1362 0
1363 0
1364 0
1365 0
1366 0
1367 0
1368 0
1369 0
1370 0
1371 0
1372 0
1373 0
1374 0
1375 0
1376 0
1377 0
1378 0
1379 0
1380 0
1381 0
1382 0
1383 0
1384 0
1385 0
1386 0
1387 0
1388 0
1389 0
1390 0
1391 0
1392 0
1393 0
1394 0
1395 0
1396 0
1397 0
1398 0
1399 0
1400 0
1401 0
1402 0
1403 0
1404 0
1405 0
1406 0
1407 0
1408 0
1409 0
1410 0
1411 0
1412 0
1413 0
1414 0
1415 0
1416 0
1417 0
1418 0
1419 0
1420 0
1421 0
1422 0
1423 0
1424 0
1425 0
1426 0
1427 0
1428 0
1429 0
1430 0
1431 0
1432 0
1433 0
1434 0
1435 0
1436 0
1437 0
1438 0
1439 0
1440 0
1441 0
1442 0
1443 0
1444 0
1445 0
1446 0
1447 0
1448 0
1449 0
1450 0
1451 0
1452 0
1453 0
1454 0
1455 0
1456 0
1457 0
1458 0
1459 0
1460 0
1461 0
1462 0
1463 0
1464 0
1465 0
1466 0
1467 0
1468 0
1469 0
1470 0
1471 0
1472 0
1473 0
1474 0
1475 0
1476 0
1477 0
1478 0
1479 0
1480 0
1481 0
1482 0
1483 0
1484 0
1485 0
1486 0
1487 0
1488 0
1489 0
1490 0
1491 0
1492 0
1493 0
1494 0
1495 0
1496 0
1497 0
1498 0
1499 0
1500 0
1501 0
1502 0
1503 0
1504 0
1505 0
1506 0
1507 0
1508 0
1509 0
1510 0
1511 0
1512 0
1513 0
1514 0
1515 0
1516 0
1517 0
1518 0
1519 0
1520 0
1521 0
1522 0
1523 0
1524 0
1525 0
1526 0
1527 0
1528 0
1529 0
1530 0
1531 0
1532 0
1533 0
1534 0
1535 0
1536 0
1537 0
1538 0
1539 0
1540 0
1541 0
1542 0
1543 0
1544 0
1545 0
1546 0
1547 0
1548 0
1549 0
1550 0
1551 0
1552 0
1553 0
1554 0
1555 0
1556 0
1557 0
1558 0
1559 0
1560 0
1561 0
1562 0
1563 0
1564 0
1565 0
1566 0
1567 0
1568 0
1569 0
1570 0
1571 0
1572 0
1573 0
1574 0
1575 0
1576 0
1577 0
1578 0
1579 0
1580 0
1581 0
1582 0
1583 0
1584 0
1585 0
1586 0
1587 0
1588 0
1589 0
1590 0
1591 0
1592 0
1593 0
1594 0
1595 0
1596 0
1597 0
1598 0
1599 0
1600 0
1601 0
1602 0
1603 0
1604 0
1605 0
1606 0
1607 0
1608 0
1609 0
1610 0
1611 0
1612 0
1613 0
1614 0
1615 0
1616 0
1617 0
1618 0
1619 0
1620 0
1621 0
1622 0
1623 0
1624 0
1625 0
1626 0
1627 0
1628 0
1629 0
1630 0
1631 0
1632 0
1633 0
1634 0
1635 0
1636 0
1637 0
1638 0
1639 0
1640 0
1641 0
1642 0
1643 0
1644 0
1645 0
1646 0
1647 0
1648 0
1649 0
1650 0
1651 0
1652 0
1653 0
1654 0
1655 0
1656 0
1657 0
1658 0
1659 0
1660 0
1661 0
1662 0
1663 0
1664 0
1665 0
1666 0
1667 0
1668 0
1669 0
1670 0
1671 0
1672 0
1673 0
1674 0
1675 0
1676 0
1677 0
1678 0
1679 0
1680 0
1681 0
1682 0
1683 0
1684 0
1685 0
1686 0
1687 0
1688 0
1689 0
1690 0
1691 0
1692 0
1693 0
1694 0
1695 0
1696 0
1697 0
1698 0
1699 0
1700 0
1701 0
1702 0
1703 0
1704 0
1705 0
1706 0
1707 0
1708 0
1709 0
1710 0
1711 0
1712 0
1713 0
1714 0
1715 0
1716 0
1717 0
1718 0
1719 0
1720 0
1721 0
1722 0
1723 0
1724 0
1725 0
1726 0
1727 0
1728 0
1729 0
1730 0
1731 0
1732 0
1733 0
1734 0
1735 0
1736 0
1737 0
1738 0
1739 0
1740 0
1741 0
1742 0
1743 0
1744 0
1745 0
1746 0
1747 0
1748 0
1749 0
1750 0
1751 0
1752 0
1753 0
1754 0
1755 0
1756 0
1757 0
1758 0
1759 0
1760 0
1761 0
1762 0
1763 0
1764 0
1765 0
1766 0
1767 0
1768 0
1769 0
1770 0
1771 0
1772 0
1773 0
1774 0
1775 0
1776 0
1777 0
1778 0
1779 0
1780 0
1781 0
1782 0
1783 0
1784 0
1785 0
1786 0
1787 0
1788 0
1789 0
1790 0
1791 0
1792 0
1793 0
1794 0
1795 0
1796 0
1797 0
1798 0
1799 0
1800 0
1801 0
1802 0
1803 0
1804 0
1805 0
1806 0
1807 0
1808 0
1809 0
1810 0
1811 0
1812 0
1813 0
1814 0
1815 0
1816 0
1817 0
1818 0
1819 0
1820 0
1821 0
1822 0
1823 0
1824 0
1825 0
1826 0
1827 0
1828 0
1829 0
1830 0
1831 0
1832 0
1833 0
1834 0
1835 0
1836 0
1837 0
1838 0
1839 0
1840 0
1841 0
1842 0
1843 0
1844 0
1845 0
1846 0
1847 0
1848 0
1849 0
1850 0
1851 0
1852 0
1853 0
1854 0
1855 0
1856 0
1857 0
1858 0
1859 0
1860 0
1861 0
1862 0
1863 0
1864 0
1865 0
1866 0
1867 0
1868 0
1869 0
1870 0
1871 0
1872 0
1873 0
1874 0
1875 0
1876 0
1877 0
1878 0
1879 0
1880 0
1881 0
1882 0
1883 0
1884 0
1885 0
1886 0
1887 0
1888 0
1889 0
1890 0
1891 0
1892 0
1893 0
1894 0
1895 0
1896 0
1897 0
1898 0
1899 0
1900 0
1901 0
1902 0
1903 0
1904 0
1905 0
1906 0
1907 0
1908 0
1909 0
1910 0
1911 0
1912 0
1913 0
1914 0
1915 0
1916 0
1917 0
1918 0
1919 0
1920 0
1921 0
1922 0
1923 0
1924 0
1925 0
1926 0
1927 0
1928 0
1929 0
1930 0
1931 0
1932 0
1933 0
1934 0
1935 0
1936 0
1937 0
1938 0
1939 0
1940 0
1941 0
1942 0
1943 0
1944 0
1945 0
1946 0
1947 0
1948 0
1949 0
1950 0
1951 0
1952 0
1953 0
1954 0
1955 0
1956 0
1957 0
1958 0
1959 0
1960 0
1961 0
1962 0
1963 0
1964 0
1965 0
1966 0
1967 0
1968 0
1969 0
1970 0
1971 0
1972 0
1973 0
1974 0
1975 0
1976 0
1977 0
1978 0
1979 0
1980 0
1981 0
1982 0
1983 0
1984 0
1985 0
1986 0
1987 0
1988 0
1989 0
1990 0
1991 0
1992 0
1993 0
1994 0
1995 0
1996 0
1997 0
1998 0
1999 0
2000 0
2001 0
2002 0
2003 0
2004 0
2005 0
2006 0
2007 0
2008 0
2009 0
2010 0
2011 0
2012 0
2013 0
2014 0
2015 0
2016 0
2017 0
2018 0
2019 0
2020 0
2021 0
2022 0
2023 0
2024 0
2025 0
2026 0
2027 0
2028 0
2029 0
2030 0
2031 0
2032 0
2033 0
2034 0
2035 0
2036 0
2037 0
2038 0
2039 0
2040 0
2041 0
2042 0
2043 0
2044 0
2045 0
2046 0
2047 0
2048 0
2049 0
2050 0
2051 0
2052 0
2053 0
2054 0
2055 0
2056 0
2057 0
2058 0
2059 0
2060 0
2061 0
2062 0
2063 0
2064 0
2065 0
2066 0
2067 0
2068 0
2069 0
2070 0
2071 0
2072 0
2073 0
2074 0
2075 0
2076 0
2077 0
2078 0
2079 0
2080 0
2081 0
2082 0
2083 0
2084 0
2085 0
2086 0
2087 0
2088 0
2089 0
2090 0
2091 0
2092 0
2093 0
2094 0
2095 0
2096 0
2097 0
2098 0
2099 0
2100 0
2101 0
2102 0
2103 0
2104 0
2105 0
2106 0
2107 0
2108 0
2109 0
2110 0
2111 0
2112 0
ITEM: TIMESTEP
1
ITEM: NUMBER OF ATOMS
832
ITEM: BOX BOUNDS pp pp ff
0.0000000000000000e+00 3.2200000000000003e+01
0.0000000000000000e+00 3.4399999999999999e+01
-6.3250000000000000e+01 6.3250000000000000e+01
ITEM: ATOMS id q
1281 -0.00663109
1282 -0.00555112
1283 -0.00515387
1284 -0.0114825
1285 -0.00769075
1286 -0.01512
1287 -0.0149212
1288 -0.00464232
1289 -0.00820287
1290 -0.00418265
1291 0.00109586
1292 -0.00591539
1293 -0.00220867
1294 -0.00176507
1295 -0.000318435
1296 -0.00486225
1297 -0.00144463
1298 -0.0101547
1299 -0.00845219
1300 -0.010766
1301 -0.0135388
1302 -0.000301121
1303 -0.00798495
1304 0.00850061
1305 0.00698945
1306 0.0118142
1307 -0.00617502
1308 -0.00867382
1309 -0.00858039
1310 -0.00606119
1311 -0.0145578
1312 -0.0122266
1313 -0.0104529
1314 -0.0160459
1315 -0.00409366
1316 -0.00584091
1317 -0.0068399
1318 -0.0041941
1319 -0.00591924
1320 -0.0061459
1321 -0.00486789
1322 -0.00391638
1323 -0.00839311
1324 -0.00622082
1325 -0.0105501
1326 -0.0100858
1327 -0.00689212
1328 -0.00976951
1329 0.00593748
1330 0.000513013
1331 0.012714
1332 0.0111814
1333 -0.0244764
1334 -0.0120959
1335 -0.0113162
1336 -0.00869589
1337 -0.00976139
1338 -0.0086219
1339 -0.00984608
1340 -0.00564639
1341 -0.00874281
1342 -0.00650357
1343 -0.00519317
1344 -0.00989094
1345 -0.00861612
1346 -0.0075655
1347 -0.00826576
1348 -0.00764422
1349 -0.00608147
1350 -0.0122519
1351 -0.00869171
1352 -0.018039
1353 -0.0125559
1354 -0.0112984
1355 -0.0129062
1356 -0.00210668
1357 -0.000752372
1358 0.00738714
1359 -0.0182228
1360 -0.0354857
1361 -0.00742429
1362 -0.0117945
1363 -0.00603794
1364 -0.00691693
1365 -0.00472769
1366 -0.00632911
1367 -0.00188084
1368 -0.00377495
1369 -0.00551152
1370 -0.00451667
1371 -0.00900692
1372 -0.00897032
1373 -0.00716087
1374 -0.00882481
1375 -0.00956765
1376 -0.00791677
1377 -0.0157327
1378 -0.0134731
1379 -0.0192886
1380 -0.0214561
1381 -0.00767154
1382 -0.0145769
1383 -0.0022024
1384 -0.00695896
1385 -0.0291305
1386 -0.00858474
1387 -0.0148296
1388 -0.0101322
1389 -0.00758668
1390 -0.00923682
1391 -0.00846627
1392 -0.00275326
1393 -0.00497389
1394 -0.00227373
1395 -0.00105613
1396 -0.00657123
1397 -0.0038355
1398 -0.0077593
1399 -0.00818245
1400 -0.00418039
1401 -0.00626783
1402 -0.00644349
1403 -0.00612569
1404 -0.00968725
1405 -0.0110876
1406 -0.00504726
1407 -0.011235
1408 -0.00496261
1409 -0.0050181
1410 -0.00387828
1411 -0.00848839
1412 -0.0128931
1413 -0.0206723
1414 -0.0114989
1415 -0.0166228
1416 -0.0189462
1417 -0.00556771
1418 -0.00956842
1419 -0.00636992
1420 -0.00381892
1421 -0.00994484
1422 -0.00616896
1423 -0.0178514
1424 -0.00919711
1425 -0.0148015
1426 -0.0143019
1427 -0.00486273
1428 -0.00504528
1429 -0.00859922
1430 -0.00517119
1431 -0.00654369
1432 -0.00812552
1433 -0.00384846
1434 -0.0033072
1435 -0.0038372
1436 -0.00461776
1437 -0.00368281
1438 -0.0105917
1439 -0.00722845
1440 -0.0215133
1441 -0.0215577
1442 -0.00809113
1443 -0.0166022
1444 -0.0084555
1445 -0.00508963
1446 -0.0145243
1447 -0.0109266
1448 -0.0153717
1449 -0.0128135
1450 -0.0308034
1451 -0.0248416
1452 -0.0127178
1453 -0.0235141
1454 -0.0070476
1455 -0.00680228
1456 -0.00849341
1457 -0.00894799
1458 -0.00563137
1459 -0.00675357
1460 -0.0105597
1461 -0.00626869
1462 -0.0116052
1463 -0.00161726
1464 -1.3163e-05
1465 -0.00720368
1466 -0.0052055
1467 -0.0101284
1468 -0.0143814
1469 -0.0113914
1470 -0.00867217
1471 -0.0226563
1472 -0.0144393
1473 -0.01385
1474 -0.0194194
1475 -0.0100233
1476 -0.0117051
1477 -0.0114484
1478 -0.0178036
1479 -0.00769499
1480 -0.0114366
1481 -0.00861333
1482 -0.00769166
1483 -0.00649666
1484 -0.00768983
1485 -0.0103781
1486 -0.00604343
1487 -0.0201458
1488 -0.0138633
1489 -0.00239336
1490 -0.00277953
1491 -0.00209544
1492 -0.00608982
1493 -0.00319688
1494 -0.00738329
1495 -0.00747528
1496 -0.0084649
1497 -0.0115728
1498 -0.00812023
1499 -0.0164524
1500 -0.00408106
1501 -0.00978161
1502 -0.00583667
1503 -0.00519681
1504 -0.00912316
1505 -0.00668791
1506 -0.0132125
1507 -0.00951232
1508 -0.00897595
1509 -0.0115919
1510 0.00026343
1511 -0.00481829
1512 -0.00981926
1513 -0.00718498
1514 -0.0189201
1515 -0.0126438
1516 -0.0124613
1517 -0.0101864
1518 -0.00828355
1519 -0.00899754
1520 -0.00874893
1521 0.00258236
1522 -0.00547394
1523 0.0119017
1524 0.00486521
1525 0.00182793
1526 0.00521166
1527 -0.00786206
1528 -0.00427615
1529 -0.0110982
1530 -0.00759153
1531 -0.021263
1532 -0.0133501
1533 -0.0210231
1534 -0.0218539
1535 0.00641887
1536 -0.00849871
1537 0.0153147
1538 0.0110677
1539 -0.00118085
1540 0.00155172
1541 -0.0210662
1542 -0.0118832
1543 -0.0155392
1544 -0.00758443
1545 -0.0106587
1546 -0.00201431
1547 -0.00738592
1548 0.0075748
1549 0.00449118
1550 0.0012279
1551 0.0120586
1552 -0.0140448
1553 -0.0024666
1554 -0.0103081
1555 -0.0118597
1556 -0.00715566
1557 -0.00958673
1558 -0.0133784
1559 -0.0164213
1560 -0.00561756
1561 -0.0171965
1562 0.0116034
1563 0.00610773
1564 0.00826117
1565 0.017257
1566 0.00700539
1567 -0.00814616
1568 -0.0175592
1569 -0.00518474
1570 -0.00852835
1571 -0.00339589
1572 -0.00443719
1573 -0.00182737
1574 -0.00199493
1575 -0.00483219
1576 0.000754708
1577 -0.0173929
1578 -0.00943786
1579 -0.0179887
1580 -0.0205894
1581 -0.00311718
1582 -0.0109611
1583 0.00317134
1584 0.000496637
1585 -0.00486385
1586 -0.00137672
1587 -0.0109064
1588 -0.00735563
1589 0.00367078
1590 -0.00283657
1591 0.0142341
1592 0.00795188
1593 -0.00561215
1594 -0.00573901
1595 -0.00431333
1596 -0.00449554
1597 -0.00564593
1598 -0.00365768
1599 -0.00343922
1600 -0.00252537
1601 -0.00372225
1602 -0.00369045
1603 -0.00461987
1604 -0.0102814
1605 -0.010516
1606 -0.0139105
1607 -0.0145327
1608 -0.00494331
1609 -0.00695664
1610 -0.00336688
1611 0.00143282
1612 -0.0122176
1613 -0.00620473
1614 -0.00254074
1615 -0.0132595
1616 0.0227573
1617 0.00848513
1618 0.0248805
1619 -0.00201728
1620 -0.000813387
1621 -0.00391275
1622 -0.00480074
1623 -0.00213708
1624 -0.00369532
1625 -0.00371098
1626 -0.00304454
1627 -0.00334842
1628 -0.00286783
1629 -0.00455095
1630 -0.00164602
1631 -0.012271
1632 -0.00699672
1633 -0.0154529
1634 -0.0166681
1635 -0.0114928
1636 -0.0116537
1637 -0.0109672
1638 -0.00908779
1639 -0.0110343
1640 -0.0117152
1641 0.0052195
1642 -0.00147132
1643 0.015463
1644 0.0184876
1645 -0.00529726
1646 -0.00362722
1647 -0.00393504
1648 -0.00100584
1649 -0.00185078
1650 -0.00296114
1651 -0.0012627
1652 -0.00824347
1653 -0.00476641
1654 -0.0157311
1655 -0.00855197
1656 -0.0128825
1657 -0.0131029
1658 -0.00466691
1659 -0.00874423
1660 -0.0052281
1661 -0.00830923
1662 -0.00835654
1663 -0.0105633
1664 -0.0103131
1665 -0.0103577
1666 -0.0101163
1667 -0.0111025
1668 -0.0143161
1669 -0.00538665
1670 -0.0125121
1671 -0.0114295
1672 -0.00618225
1673 -0.00465134
1674 -0.0059572
1675 -0.000939529
1676 -0.00193931
1677 -0.00463528
1678 -0.00330559
1679 -0.0163861
1680 -0.00796925
1681 -0.030578
1682 -0.0202423
1683 -0.00821939
1684 -0.0162787
1685 0.00462205
1686 0.00130728
1687 -0.000133832
1688 0.000214272
1689 -0.00514966
1690 -0.00532811
1691 -0.00886942
1692 -0.00814139
1693 -0.017885
1694 -0.00965016
1695 -0.0396132
1696 -0.0228068
1697 0.0130993
1698 0.0144775
1699 0.0156494
1700 0.0168961
1701 0.0144901
1702 0.0234802
1703 0.0225608
1704 0.00907343
1705 0.01713
1706 0.00346984
1707 0.00455442
1708 0.0113781
1709 0.00702658
1710 0.0157531
1711 0.0181045
1712 0.00853933
1713 0.0132527
1714 0.0140232
1715 0.00930669
1716 0.0134161
1717 0.0151469
1718 0.00202692
1719 0.00709011
1720 0.00102701
1721 9.38826e-05
1722 0.00684711
1723 0.0104355
1724 0.0107394
1725 0.00861402
1726 0.0124386
1727 0.0133428
1728 0.0139063
1729 0.00893011
1730 0.0186604
1731 2.0678e-05
1732 0.00644369
1733 0.00204586
1734 0.00180056
1735 0.00632627
1736 0.00770463
1737 0.00261365
1738 0.00924866
1739 0.00487679
1740 0.00514882
1741 0.012039
1742 0.012729
1743 0.00426055
1744 0.0120648
1745 -0.00353609
1746 0.000321138
1747 0.00302654
1748 -0.000854028
1749 0.00417185
1750 0.0076742
1751 0.00643171
1752 0.0072785
1753 0.00728732
1754 0.0021925
1755 0.0064698
1756 -0.00289005
1757 0.000809656
1758 -0.000705424
1759 -0.00174786
1760 6.89484e-05
1761 0.00049192
1762 -0.00118619
1763 0.000237359
1764 0.000136855
1765 -0.0013122
1766 0.00628882
1767 0.00273864
1768 0.00706725
1769 0.0075114
1770 0.00361806
1771 0.00405515
1772 0.00093888
1773 -0.000793973
1774 0.00116816
1775 0.00847275
1776 0.0043145
1777 0.0167613
1778 0.01104
1779 0.0096135
1780 0.0124636
1781 -0.000524973
1782 0.00103923
1783 0.00432298
1784 -0.0021853
1785 0.007045
1786 0.00390949
1787 0.00212886
1788 0.00156813
1789 0.00592672
1790 0.000189205
1791 0.0116117
1792 0.00621891
1793 0.0100391
1794 0.00880227
1795 0.0124779
1796 0.00859879
1797 0.0120579
1798 0.0110639
1799 0.00511216
1800 0.00568908
1801 0.0055586
1802 0.0136042
1803 0.00927968
1804 0.0158055
1805 0.0185567
1806 0.00626333
1807 0.0113172
1808 0.00809978
1809 0.00358179
1810 0.0189197
1811 0.0114977
1812 0.011701
1813 0.0144995
1814 0.00732091
1815 0.00593785
1816 0.014227
1817 0.00996059
1818 0.0116068
1819 0.0153671
1820 0.00670471
1821 0.00960109
1822 0.0108061
1823 0.0116843
1824 0.00682543
1825 0.012682
1826 0.00575451
1827 0.0095523
1828 0.00575294
1829 0.0130122
1830 0.0124963
1831 0.00659898
1832 0.0116278
1833 0.00412004
1834 0.00533985
1835 0.0120592
1836 0.00888064
1837 0.0157549
1838 0.0182901
1839 0.0119053
1840 0.0134639
1841 0.0122049
1842 0.0104774
1843 0.00898287
1844 0.0122331
1845 0.00043849
1846 0.00717041
1847 -0.0023386
1848 0.000787358
1849 0.000829518
1850 0.00203525
1851 0.00331641
1852 0.00341506
1853 0.0082698
1854 0.0172203
1855 0.0126279
1856 0.00887887
1857 0.0140662
1858 -2.75322e-05
1859 0.00371876
1860 0.00295671
1861 0.00175509
1862 0.00823147
1863 0.00750742
1864 0.0141989
1865 0.0115498
1866 0.0215775
1867 0.0173311
1868 0.0116118
1869 0.0161734
1870 0.00154771
1871 0.00589119
1872 -0.000716386
1873 -0.00143058
1874 0.00227138
1875 -0.00197851
1876 0.00280147
1877 0.000803261
1878 0.00333998
1879 0.00915368
1880 0.00468719
1881 0.0110523
1882 0.016312
1883 -0.00118572
1884 0.00664042
1885 -0.00106753
1886 -0.00199862
1887 0.00393321
1888 0.00194695
1889 0.00595547
1890 0.00570754
1891 0.0137053
1892 0.0115337
1893 0.0145585
1894 0.0206413
1895 0.00488655
1896 0.0108249
1897 0.00250837
1898 0.00155939
1899 0.0101043
1900 0.00367224
1901 0.00956235
1902 0.00986029
1903 -0.000750189
1904 0.00374734
1905 -0.00201373
1906 0.00843027
1907 0.00443344
1908 0.0038517
1909 0.00796141
1910 -0.00129566
1911 -0.00206726
1912 0.00709236
1913 0.000218671
1914 0.00834413
1915 0.00724665
1916 0.000657159
1917 0.00397804
1918 0.00648392
1919 0.00482172
1920 0.00916539
1921 0.00996891
1922 0.00550779
1923 0.00651466
1924 0.0065374
1925 0.00452929
1926 0.0109705
1927 0.0109321
1928 0.00239955
1929 0.0096798
1930 -0.00307794
1931 0.00914076
1932 0.00141294
1933 0.0168609
1934 0.0116977
1935 0.0059987
1936 0.00923066
1937 0.006665
1938 0.00196976
1939 0.0189049
1940 0.0123634
1941 0.00839573
1942 0.0142012
1943 0.00227344
1944 0.000561336
1945 0.011565
1946 0.00521135
1947 0.0122235
1948 0.0125567
1949 0.00426094
1950 0.00749977
1951 0.00416702
1952 0.00423273
1953 0.00659277
1954 0.00683649
1955 0.00281447
1956 0.00358171
1957 0.00996893
1958 0.0165773
1959 0.0119912
1960 0.0139166
1961 0.0196688
1962 0.00198853
1963 0.00746909
1964 0.010053
1965 0.00521868
1966 0.0128129
1967 0.0166678
1968 0.00337413
1969 0.0089999
1970 0.00547421
1971 0.00335185
1972 0.0115453
1973 0.0113027
1974 0.0043517
1975 0.0113631
1976 0.000203845
1977 0.00213144
1978 0.00642679
1979 0.00246453
1980 0.0112799
1981 0.0085523
1982 0.00924414
1983 0.00810519
1984 0.00957464
1985 0.0137866
1986 0.0122122
1987 0.0111928
1988 0.0130472
1989 0.00882862
1990 0.00545195
1991 0.0140185
1992 0.00993583
1993 0.00753354
1994 0.0110938
1995 0.00185246
1996 0.00294813
1997 0.00582023
1998 0.00381994
1999 0.00374322
2000 0.00712936
2001 -0.000607911
2002 0.000903803
2003 0.00523783
2004 0.000685682
2005 0.010851
2006 0.0080554
2007 0.0100673
2008 0.0120421
2009 0.0031657
2010 0.00926884
2011 0.00552723
2012 0.0207425
2013 0.0147304
2014 0.0160084
2015 0.0177568
2016 0.0158913
2017 0.0132985
2018 0.0135378
2019 0.0165555
2020 0.00413233
2021 0.00823352
2022 0.00562088
2023 0.00303389
2024 0.00841477
2025 0.00674767
2026 0.00431067
2027 0.00450566
2028 0.00991581
2029 0.00266484
2030 0.0142968
2031 0.0110064
2032 0.00702555
2033 0.0104432
2034 0.00560289
2035 0.00243746
2036 0.000981261
2037 0.0112346
2038 0.00773761
2039 0.0152147
2040 0.0186441
2041 0.0104708
2042 0.0152667
2043 0.00893536
2044 0.0128613
2045 0.00129298
2046 0.00897851
2047 0.000699227
2048 0.00143004
2049 0.0088627
2050 0.00610374
2051 0.00676392
2052 0.0100727
2053 0.00575983
2054 0.00550685
2055 0.0159379
2056 0.012849
2057 0.00908185
2058 0.0162683
2059 0.000967387
2060 0.00480021
2061 0.00139812
2062 0.00417449
2063 0.00254139
2064 0.00754044
2065 0.00684797
2066 0.00743987
2067 0.00949566
2068 0.00404344
2069 0.00728785
2070 -0.000704773
2071 0.00316853
2072 -0.00324306
2073 -0.00262329
2074 0.00350552
2075 -0.000648237
2076 0.00395985
2077 0.00644462
2078 -0.00236057
2079 0.00276687
2080 0.00209356
2081 0.000959815
2082 0.005171
2083 0.0085876
2084 0.000838133
2085 0.00496195
2086 0.000715054
2087 0.00975554
2088 0.00469334
2089 0.0107131
2090 0.00618265
2091 0.0144415
2092 0.00790444
2093 0.0111027
2094 0.00935315
2095 0.00267429
2096 0.003584
2097 0.00345363
2098 -0.000777547
2099 0.0115092
2100 0.00229973
2101 0.0100288
2102 0.00724674
2103 0.00373148
2104 0.0026531
2105 0.00482156
2106 -0.000822703
2107 0.00445826
2108 0.00181959
2109 0.000403401
2110 0.0014695
2111 0.00375578
2112 -0.000119643
ITEM: TIMESTEP
2
ITEM: NUMBER OF ATOMS
832
ITEM: BOX BOUNDS pp pp ff
0.0000000000000000e+00 3.2200000000000003e+01
0.0000000000000000e+00 3.4399999999999999e+01
-6.3250000000000000e+01 6.3250000000000000e+01
ITEM: ATOMS id q
1281 -0.00663042
1282 -0.00554931
1283 -0.00515575
1284 -0.0114727
1285 -0.00768556
1286 -0.0151083
1287 -0.0149047
1288 -0.00464748
1289 -0.0082017
1290 -0.00417042
1291 0.00107763
1292 -0.00589486
1293 -0.00217517
1294 -0.00178842
1295 -0.000342347
1296 -0.00489031
1297 -0.00147965
1298 -0.0101748
1299 -0.00847528
1300 -0.0107728
1301 -0.0135488
1302 -0.000290644
1303 -0.0079687
1304 0.00850985
1305 0.00701541
1306 0.0118322
1307 -0.00617113
1308 -0.00865991
1309 -0.00858202
1310 -0.00606159
1311 -0.014556
1312 -0.0122217
1313 -0.0104629
1314 -0.0160425
1315 -0.00411762
1316 -0.00585338
1317 -0.00687045
1318 -0.00421365
1319 -0.00594587
1320 -0.00616835
1321 -0.00489216
1322 -0.00393994
1323 -0.00841333
1324 -0.00624923
1325 -0.010549
1326 -0.0101039
1327 -0.00687966
1328 -0.00976835
1329 0.00593222
1330 0.000515903
1331 0.0126978
1332 0.0111761
1333 -0.0244083
1334 -0.0121148
1335 -0.0113051
1336 -0.00871997
1337 -0.00978347
1338 -0.0086321
1339 -0.00985337
1340 -0.00566831
1341 -0.008758
1342 -0.00653751
1343 -0.00522126
1344 -0.00992498
1345 -0.00865812
1346 -0.00758319
1347 -0.00829299
1348 -0.00764981
1349 -0.00609885
1350 -0.0122352
1351 -0.00869699
1352 -0.0179711
1353 -0.0125261
1354 -0.0112999
1355 -0.0128678
1356 -0.00212852
1357 -0.00077347
1358 0.00736085
1359 -0.0182087
1360 -0.0353927
1361 -0.00746749
1362 -0.0118233
1363 -0.00605809
1364 -0.00695177
1365 -0.0047328
1366 -0.00634
1367 -0.00188867
1368 -0.00378814
1369 -0.00552022
1370 -0.00453606
1371 -0.00901023
1372 -0.00898527
1373 -0.0071719
1374 -0.00883705
1375 -0.00956471
1376 -0.00791693
1377 -0.0157245
1378 -0.0134563
1379 -0.0193203
1380 -0.0214115
1381 -0.00774071
1382 -0.0146196
1383 -0.00223918
1384 -0.00699377
1385 -0.0290974
1386 -0.00862433
1387 -0.0148279
1388 -0.0101639
1389 -0.00762747
1390 -0.00922463
1391 -0.00848401
1392 -0.00273044
1393 -0.00495951
1394 -0.00225559
1395 -0.00104641
1396 -0.00656799
1397 -0.00382628
1398 -0.00778569
1399 -0.00818737
1400 -0.00420762
1401 -0.00628929
1402 -0.00646995
1403 -0.00614061
1404 -0.00973537
1405 -0.0111153
1406 -0.00512063
1407 -0.0113059
1408 -0.00501886
1409 -0.0050899
1410 -0.00392311
1411 -0.00854325
1412 -0.0129307
1413 -0.0207499
1414 -0.0115614
1415 -0.0166184
1416 -0.0189781
1417 -0.00553265
1418 -0.00954311
1419 -0.00633676
1420 -0.00378372
1421 -0.00992723
1422 -0.0061394
1423 -0.0178607
1424 -0.00919514
1425 -0.0148264
1426 -0.0143334
1427 -0.00488567
1428 -0.00507808
1429 -0.00862063
1430 -0.00519927
1431 -0.00657812
1432 -0.00816438
1433 -0.00388286
1434 -0.00335551
1435 -0.00387851
1436 -0.00466217
1437 -0.00373088
1438 -0.0106458
1439 -0.00728603
1440 -0.0215023
1441 -0.0216221
1442 -0.00806071
1443 -0.0165825
1444 -0.00841305
1445 -0.00506
1446 -0.014494
1447 -0.0108917
1448 -0.0153371
1449 -0.012803
1450 -0.0306875
1451 -0.0247933
1452 -0.0126894
1453 -0.0234691
1454 -0.0070459
1455 -0.00680936
1456 -0.00849906
1457 -0.00895233
1458 -0.00564729
1459 -0.00677151
1460 -0.0105686
1461 -0.00628416
1462 -0.0116246
1463 -0.00163946
1464 -5.66508e-05
1465 -0.00719652
1466 -0.00522574
1467 -0.0101061
1468 -0.0143414
1469 -0.0114018
1470 -0.00865391
1471 -0.0226386
1472 -0.01441
1473 -0.0138445
1474 -0.0193772
1475 -0.00998756
1476 -0.0116728
1477 -0.0114047
1478 -0.0177148
1479 -0.00767854
1480 -0.0113985
1481 -0.0086031
1482 -0.00768
1483 -0.00650693
1484 -0.00769248
1485 -0.0103737
1486 -0.00605541
1487 -0.0201426
1488 -0.0138609
1489 -0.00242531
1490 -0.00278438
1491 -0.00210934
1492 -0.00607994
1493 -0.00318849
1494 -0.00741023
1495 -0.00747382
1496 -0.00854396
1497 -0.0116308
1498 -0.00819258
1499 -0.0165209
1500 -0.00411801
1501 -0.00981917
1502 -0.00585643
1503 -0.00520629
1504 -0.00914297
1505 -0.00668878
1506 -0.0132059
1507 -0.00951077
1508 -0.00896354
1509 -0.0115713
1510 0.000264075
1511 -0.00482311
1512 -0.00978616
1513 -0.00716802
1514 -0.0188906
1515 -0.0126727
1516 -0.0124953
1517 -0.0101759
1518 -0.00829727
1519 -0.008972
1520 -0.00873159
1521 0.00258119
1522 -0.00547986
1523 0.011886
1524 0.00483055
1525 0.00178716
1526 0.00516031
1527 -0.00790735
1528 -0.00432784
1529 -0.0111295
1530 -0.0076294
1531 -0.021246
1532 -0.0133989
1533 -0.0209212
1534 -0.0217985
1535 0.00644972
1536 -0.00847276
1537 0.0153484
1538 0.0110885
1539 -0.00116007
1540 0.00157388
1541 -0.0210738
1542 -0.0118759
1543 -0.0155531
1544 -0.00755627
1545 -0.0106399
1546 -0.00199754
1547 -0.00735534
1548 0.00758562
1549 0.00450898
1550 0.00121211
1551 0.0120645
1552 -0.014043
1553 -0.00249138
1554 -0.0102846
1555 -0.0118677
1556 -0.00712902
1557 -0.00958213
1558 -0.0132724
1559 -0.016357
1560 -0.00555589
1561 -0.0170723
1562 0.0116711
1563 0.00616357
1564 0.00829137
1565 0.0173083
1566 0.00701778
1567 -0.00813978
1568 -0.0175531
1569 -0.00516323
1570 -0.00851423
1571 -0.00338278
1572 -0.00441631
1573 -0.00182796
1574 -0.00198728
1575 -0.00485092
1576 0.000749446
1577 -0.0173814
1578 -0.00946055
1579 -0.0179186
1580 -0.0205432
1581 -0.00308885
1582 -0.01091
1583 0.00318034
1584 0.000522027
1585 -0.0048458
1586 -0.00134774
1587 -0.0108253
1588 -0.0073092
1589 0.00374018
1590 -0.00273953
1591 0.0142372
1592 0.00798287
1593 -0.00562277
1594 -0.00573941
1595 -0.00431298
1596 -0.00448519
1597 -0.00563065
1598 -0.00364745
1599 -0.00342711
1600 -0.00252323
1601 -0.00371818
1602 -0.00369526
1603 -0.00462789
1604 -0.0102594
1605 -0.0105029
1606 -0.0138851
1607 -0.0144878
1608 -0.00494964
1609 -0.00693813
1610 -0.0033884
1611 0.00142063
1612 -0.0122146
1613 -0.00621052
1614 -0.00248298
1615 -0.0132098
1616 0.0227839
1617 0.00855213
1618 0.0248619
1619 -0.00204218
1620 -0.000825538
1621 -0.00392987
1622 -0.00482208
1623 -0.0021339
1624 -0.00369707
1625 -0.00371066
1626 -0.00303574
1627 -0.00334382
1628 -0.00286797
1629 -0.00452807
1630 -0.0016391
1631 -0.0122342
1632 -0.00698028
1633 -0.0154329
1634 -0.0166372
1635 -0.0115487
1636 -0.0116727
1637 -0.010979
1638 -0.00912921
1639 -0.0110152
1640 -0.0117072
1641 0.0052342
1642 -0.00144483
1643 0.0154131
1644 0.0184968
1645 -0.00531696
1646 -0.00364078
1647 -0.00395947
1648 -0.00100689
1649 -0.00186227
1650 -0.00296052
1651 -0.00126163
1652 -0.00824413
1653 -0.0047742
1654 -0.0156415
1655 -0.00853182
1656 -0.0128056
1657 -0.0130211
1658 -0.00462203
1659 -0.00869606
1660 -0.00523184
1661 -0.00828444
1662 -0.00837506
1663 -0.010604
1664 -0.0102921
1665 -0.010357
1666 -0.0101199
1667 -0.0110856
1668 -0.0143672
1669 -0.00539837
1670 -0.0126147
1671 -0.0114286
1672 -0.00619842
1673 -0.00464498
1674 -0.00595759
1675 -0.000934929
1676 -0.00193685
1677 -0.00462507
1678 -0.00330263
1679 -0.0162991
1680 -0.00795988
1681 -0.0302935
1682 -0.020119
1683 -0.00812305
1684 -0.0161563
1685 0.00462324
1686 0.00132964
1687 -0.000151556
1688 0.00020952
1689 -0.00515354
1690 -0.00533401
1691 -0.00886338
1692 -0.00813268
1693 -0.0178681
1694 -0.00964635
1695 -0.0396805
1696 -0.0228337
1697 0.0131149
1698 0.0144815
1699 0.0156603
1700 0.0169071
1701 0.0144901
1702 0.0235013
1703 0.0225699
1704 0.00907276
1705 0.0171282
1706 0.00345642
1707 0.00454131
1708 0.0113459
1709 0.00700357
1710 0.0157203
1711 0.0180688
1712 0.00853322
1713 0.0132325
1714 0.0140315
1715 0.00928264
1716 0.0134325
1717 0.0151252
1718 0.00203662
1719 0.00708237
1720 0.00103952
1721 0.000102797
1722 0.00686482
1723 0.0104402
1724 0.0107488
1725 0.00862054
1726 0.012442
1727 0.013374
1728 0.0139244
1729 0.00895079
1730 0.0186954
1731 2.5832e-05
1732 0.0064519
1733 0.00204107
1734 0.00179441
1735 0.00631556
1736 0.00768286
1737 0.00262927
1738 0.00922799
1739 0.00492112
1740 0.00516863
1741 0.0121006
1742 0.0127805
1743 0.00428303
1744 0.0121143
1745 -0.00353875
1746 0.000331729
1747 0.00302875
1748 -0.000850285
1749 0.00416593
1750 0.00767993
1751 0.00643214
1752 0.00730387
1753 0.00730163
1754 0.0022242
1755 0.00649657
1756 -0.00286317
1757 0.00083613
1758 -0.00069479
1759 -0.00173539
1760 9.16386e-05
1761 0.000500175
1762 -0.00116927
1763 0.000259364
1764 0.000163639
1765 -0.00128657
1766 0.00631357
1767 0.00278019
1768 0.00707665
1769 0.00754708
1770 0.00359863
1771 0.00405959
1772 0.000921007
1773 -0.000810522
1774 0.0011596
1775 0.00846868
1776 0.00430681
1777 0.0167798
1778 0.011043
1779 0.00965005
1780 0.0124955
1781 -0.000488385
1782 0.00107631
1783 0.00433702
1784 -0.00215242
1785 0.00704708
1786 0.00391953
1787 0.00212133
1788 0.00157865
1789 0.00591384
1790 0.000185965
1791 0.0116028
1792 0.00621769
1793 0.0100331
1794 0.00880284
1795 0.0124563
1796 0.00859101
1797 0.0120336
1798 0.011034
1799 0.00510386
1800 0.00567192
1801 0.00555837
1802 0.0136013
1803 0.00927603
1804 0.0158255
1805 0.0185699
1806 0.00627883
1807 0.0113471
1808 0.00809575
1809 0.00360031
1810 0.0188892
1811 0.0114908
1812 0.0116875
1813 0.0144851
1814 0.00731429
1815 0.00592671
1816 0.014223
1817 0.00995035
1818 0.0115993
1819 0.0153559
1820 0.00669571
1821 0.00959146
1822 0.0107975
1823 0.0116692
1824 0.00682903
1825 0.0126743
1826 0.00575479
1827 0.0095424
1828 0.00575028
1829 0.0130026
1830 0.0124888
1831 0.00659895
1832 0.0116291
1833 0.00411946
1834 0.0053446
1835 0.0120299
1836 0.00886647
1837 0.0157225
1838 0.0182462
1839 0.0119036
1840 0.0134462
1841 0.0122115
1842 0.0104802
1843 0.00898103
1844 0.0122351
1845 0.00043125
1846 0.00716548
1847 -0.00236628
1848 0.00077671
1849 0.000823806
1850 0.00201674
1851 0.00331713
1852 0.00342131
1853 0.00826608
1854 0.0172064
1855 0.0126185
1856 0.00886598
1857 0.0140494
1858 -2.46875e-05
1859 0.00371274
1860 0.00295111
1861 0.00175839
1862 0.00820824
1863 0.00748785
1864 0.0141876
1865 0.0115248
1866 0.0216067
1867 0.017337
1868 0.0116153
1869 0.0161924
1870 0.0015321
1871 0.00588249
1872 -0.000716559
1873 -0.0014399
1874 0.00227258
1875 -0.00199053
1876 0.00279657
1877 0.000799409
1878 0.0033339
1879 0.00919657
1880 0.00471679
1881 0.0110561
1882 0.0163188
1883 -0.00120874
1884 0.00662883
1885 -0.00108327
1886 -0.00201173
1887 0.00391533
1888 0.00193771
1889 0.00593001
1890 0.00568751
1891 0.0136902
1892 0.0115162
1893 0.0145593
1894 0.0206565
1895 0.00486821
1896 0.0108217
1897 0.00250506
1898 0.00153965
1899 0.0101439
1900 0.00368469
1901 0.00956607
1902 0.00989323