ITEM: TIMESTEP
0
ITEM: NUMBER OF ATOMS
832
ITEM: BOX BOUNDS pp pp ff
0.0000000000000000e+00 3.2200000000000003e+01
0.0000000000000000e+00 3.4399999999999999e+01
-6.3250000000000000e+01 6.3250000000000000e+01
ITEM: ATOMS id q
1281 0
1282 0
1283 0
1284 0
1285 0
1286 0
1287 0
1288 0
1289 0
1290 0
1291 0
1292 0
1293 0
1294 0
1295 0
1296 0
1297 0
1298 0
1299 0
1300 0
1301 0
1302 0
1303 0
1304 0
1305 0
1306 0
1307 0
1308 0
1309 0
1310 0
1311 0
1312 0
1313 0
1314 0
1315 0
1316 0
1317 0
1318 0
1319 0
1320 0
1321 0
1322 0
1323 0
1324 0
1325 0
1326 0
1327 0
1328 0
1329 0
1330 0
1331 0
1332 0
1333 0
1334 0
1335 0
1336 0
1337 0
1338 0
1339 0
1340 0
1341 0
1342 0
1343 0
1344 0
1345 0
1346 0
1347 0
1348 0
1349 0
1350 0
1351 0
1352 0
1353 0
1354 0
1355 0
1356 0
1357 0
1358 0
1359 0
1360 0
1361 0
1362 0
1363 0
1364 0
1365 0
1366 0
1367 0
1368 0
1369 0
1370 0
1371 0
1372 0
1373 0
1374 0
1375 0
1376 0
1377 0
1378 0
1379 0
1380 0
1381 0
1382 0
1383 0
1384 0
1385 0
1386 0
1387 0
1388 0
1389 0
1390 0
1391 0
1392 0
1393 0
1394 0
1395 0
1396 0
1397 0
1398 0
1399 0
1400 0
1401 0
1402 0
1403 0
1404 0
1405 0
1406 0
1407 0
1408 0
1409 0
1410 0
1411 0
1412 0
1413 0
1414 0
1415 0
1416 0
1417 0
1418 0
1419 0
1420 0
1421 0
1422 0
1423 0
1424 0
1425 0
1426 0
1427 0
1428 0
1429 0
1430 0
1431 0
1432 0
1433 0
1434 0
1435 0
1436 0
1437 0
1438 0
1439 0
1440 0
1441 0
1442 0
1443 0
1444 0
1445 0
1446 0
1447 0
1448 0
1449 0
1450 0
1451 0
1452 0
1453 0
1454 0
1455 0
1456 0
1457 0
1458 0
1459 0
1460 0
1461 0
1462 0
1463 0
1464 0
1465 0
1466 0
1467 0
1468 0
1469 0
1470 0
1471 0
1472 0
1473 0
1474 0
1475 0
1476 0
1477 0
1478 0
1479 0
1480 0
1481 0
1482 0
1483 0
1484 0
1485 0
1486 0
1487 0
1488 0
1489 0
1490 0
1491 0
1492 0
1493 0
1494 0
1495 0
1496 0
1497 0
1498 0
1499 0
1500 0
1501 0
1502 0
1503 0
1504 0
1505 0
1506 0
1507 0
1508 0
1509 0
1510 0
1511 0
1512 0
1513 0
1514 0
1515 0
1516 0
1517 0
1518 0
1519 0
1520 0
1521 0
1522 0
1523 0
1524 0
1525 0
1526 0
1527 0
1528 0
1529 0
1530 0
1531 0
1532 0
1533 0
1534 0
1535 0
1536 0
1537 0
1538 0
1539 0
1540 0
1541 0
1542 0
1543 0
1544 0
1545 0
1546 0
1547 0
1548 0
1549 0
1550 0
1551 0
1552 0
1553 0
1554 0
1555 0
1556 0
1557 0
1558 0
1559 0
1560 0
1561 0
1562 0
1563 0
1564 0
1565 0
1566 0
1567 0
1568 0
1569 0
1570 0
1571 0
1572 0
1573 0
1574 0
1575 0
1576 0
1577 0
1578 0
1579 0
1580 0
1581 0
1582 0
1583 0
1584 0
1585 0
1586 0
1587 0
1588 0
1589 0
1590 0
1591 0
1592 0
1593 0
1594 0
1595 0
1596 0
1597 0
1598 0
1599 0
1600 0
1601 0
1602 0
1603 0
1604 0
1605 0
1606 0
1607 0
1608 0
1609 0
1610 0
1611 0
1612 0
1613 0
1614 0
1615 0
1616 0
1617 0
1618 0
1619 0
1620 0
1621 0
1622 0
1623 0
1624 0
1625 0
1626 0
1627 0
1628 0
1629 0
1630 0
1631 0
1632 0
1633 0
1634 0
1635 0
1636 0
1637 0
1638 0
1639 0
1640 0
1641 0
1642 0
1643 0
1644 0
1645 0
1646 0
1647 0
1648 0
1649 0
1650 0
1651 0
1652 0
1653 0
1654 0
1655 0
1656 0
1657 0
1658 0
1659 0
1660 0
1661 0
1662 0
1663 0
1664 0
1665 0
1666 0
1667 0
1668 0
1669 0
1670 0
1671 0
1672 0
1673 0
1674 0
1675 0
1676 0
1677 0
1678 0
1679 0
1680 0
1681 0
1682 0
1683 0
1684 0
1685 0
1686 0
1687 0
1688 0
1689 0
1690 0
1691 0
1692 0
1693 0
1694 0
1695 0
1696 0
1697 0
1698 0
1699 0
1700 0
1701 0
1702 0
1703 0
1704 0
1705 0
1706 0
1707 0
1708 0
1709 0
1710 0
1711 0
1712 0
1713 0
1714 0
1715 0
1716 0
1717 0
1718 0
1719 0
1720 0
1721 0
1722 0
1723 0
1724 0
1725 0
1726 0
1727 0
1728 0
1729 0
1730 0
1731 0
1732 0
1733 0
1734 0
1735 0
1736 0
1737 0
1738 0
1739 0
1740 0
1741 0
1742 0
1743 0
1744 0
1745 0
1746 0
1747 0
1748 0
1749 0
1750 0
1751 0
1752 0
1753 0
1754 0
1755 0
1756 0
1757 0
1758 0
1759 0
1760 0
1761 0
1762 0
1763 0
1764 0
1765 0
1766 0
1767 0
1768 0
1769 0
1770 0
1771 0
1772 0
1773 0
1774 0
1775 0
1776 0
1777 0
1778 0
1779 0
1780 0
1781 0
1782 0
1783 0
1784 0
1785 0
1786 0
1787 0
1788 0
1789 0
1790 0
1791 0
1792 0
1793 0
1794 0
1795 0
1796 0
1797 0
1798 0
1799 0
1800 0
1801 0
1802 0
1803 0
1804 0
1805 0
1806 0
1807 0
1808 0
1809 0
1810 0
1811 0
1812 0
1813 0
1814 0
1815 0
1816 0
1817 0
1818 0
1819 0
1820 0
1821 0
1822 0
1823 0
1824 0
1825 0
1826 0
1827 0
1828 0
1829 0
1830 0
1831 0
1832 0
1833 0
1834 0
1835 0
1836 0
1837 0
1838 0
1839 0
1840 0
1841 0
1842 0
1843 0
1844 0
1845 0
1846 0
1847 0
1848 0
1849 0
1850 0
1851 0
1852 0
1853 0
1854 0
1855 0
1856 0
1857 0
1858 0
1859 0
1860 0
1861 0
1862 0
1863 0
1864 0
1865 0
1866 0
1867 0
1868 0
1869 0
1870 0
1871 0
1872 0
1873 0
1874 0
1875 0
1876 0
1877 0
1878 0
1879 0
1880 0
1881 0
1882 0
1883 0
1884 0
1885 0
1886 0
1887 0
1888 0
1889 0
1890 0
1891 0
1892 0
1893 0
1894 0
1895 0
1896 0
1897 0
1898 0
1899 0
1900 0
1901 0
1902 0
1903 0
1904 0
1905 0
1906 0
1907 0
1908 0
1909 0
1910 0
1911 0
1912 0
1913 0
1914 0
1915 0
1916 0
1917 0
1918 0
1919 0
1920 0
1921 0
1922 0
1923 0
1924 0
1925 0
1926 0
1927 0
1928 0
1929 0
1930 0
1931 0
1932 0
1933 0
1934 0
1935 0
1936 0
1937 0
1938 0
1939 0
1940 0
1941 0
1942 0
1943 0
1944 0
1945 0
1946 0
1947 0
1948 0
1949 0
1950 0
1951 0
1952 0
1953 0
1954 0
1955 0
1956 0
1957 0
1958 0
1959 0
1960 0
1961 0
1962 0
1963 0
1964 0
1965 0
1966 0
1967 0
1968 0
1969 0
1970 0
1971 0
1972 0
1973 0
1974 0
1975 0
1976 0
1977 0
1978 0
1979 0
1980 0
1981 0
1982 0
1983 0
1984 0
1985 0
1986 0
1987 0
1988 0
1989 0
1990 0
1991 0
1992 0
1993 0
1994 0
1995 0
1996 0
1997 0
1998 0
1999 0
2000 0
2001 0
2002 0
2003 0
2004 0
2005 0
2006 0
2007 0
2008 0
2009 0
2010 0
2011 0
2012 0
2013 0
2014 0
2015 0
2016 0
2017 0
2018 0
2019 0
2020 0
2021 0
2022 0
2023 0
2024 0
2025 0
2026 0
2027 0
2028 0
2029 0
2030 0
2031 0
2032 0
2033 0
2034 0
2035 0
2036 0
2037 0
2038 0
2039 0
2040 0
2041 0
2042 0
2043 0
2044 0
2045 0
2046 0
2047 0
2048 0
2049 0
2050 0
2051 0
2052 0
2053 0
2054 0
2055 0
2056 0
2057 0
2058 0
2059 0
2060 0
2061 0
2062 0
2063 0
2064 0
2065 0
2066 0
2067 0
2068 0
2069 0
2070 0
2071 0
2072 0
2073 0
2074 0
2075 0
2076 0
2077 0
2078 0
2079 0
2080 0
2081 0
2082 0
2083 0
2084 0
2085 0
2086 0
2087 0
2088 0
2089 0
2090 0
2091 0
2092 0
2093 0
2094 0
2095 0
2096 0
2097 0
2098 0
2099 0
2100 0
2101 0
2102 0
2103 0
2104 0
2105 0
2106 0
2107 0
2108 0
2109 0
2110 0
2111 0
2112 0
ITEM: TIMESTEP
1
ITEM: NUMBER OF ATOMS
832
ITEM: BOX BOUNDS pp pp ff
0.0000000000000000e+00 3.2200000000000003e+01
0.0000000000000000e+00 3.4399999999999999e+01
-6.3250000000000000e+01 6.3250000000000000e+01
ITEM: ATOMS id q
1281 -0.00459121
1282 -0.00688932
1283 -0.00871123
1284 -0.00950307
1285 -0.00841241
1286 -0.0111342
1287 -0.0108538
1288 -0.00611806
1289 -0.00875368
1290 -0.00768299
1291 -0.00786153
1292 -0.00842481
1293 -0.0132421
1294 -0.00336126
1295 -0.00635472
1296 -0.00513086
1297 -0.00281154
1298 -0.00892306
1299 -0.00717358
1300 -0.00923813
1301 -0.0108593
1302 -0.00321063
1303 -0.00886131
1304 0.000565754
1305 -0.00382064
1306 -0.00626299
1307 -0.00594857
1308 -0.00259593
1309 -0.00839536
1310 -0.00685882
1311 -0.0113745
1312 -0.0102375
1313 -0.00887541
1314 -0.0118856
1315 -0.00549558
1316 -0.00641301
1317 -0.0073317
1318 -0.00597404
1319 -0.00655715
1320 -0.00702462
1321 -0.00592833
1322 -0.00516189
1323 -0.00836662
1324 -0.00660441
1325 -0.00977234
1326 -0.00930417
1327 -0.00702971
1328 -0.00892211
1329 0.000525055
1330 -0.00250532
1331 0.000304133
1332 0.00327529
1333 -0.0116329
1334 -0.0102713
1335 -0.00892731
1336 -0.00862504
1337 -0.00909851
1338 -0.00817706
1339 -0.00906311
1340 -0.00614737
1341 -0.00798604
1342 -0.00662384
1343 -0.00588503
1344 -0.00876516
1345 -0.0078869
1346 -0.00780908
1347 -0.00797926
1348 -0.00815609
1349 -0.00704868
1350 -0.0109475
1351 -0.00884489
1352 -0.0136485
1353 -0.0110329
1354 -0.00937701
1355 -0.010383
1356 -0.00600014
1357 -0.00344106
1358 -0.00608419
1359 -0.0131561
1360 -0.0172018
1361 -0.00811778
1362 -0.0103106
1363 -0.00708473
1364 -0.00774349
1365 -0.0057904
1366 -0.00694272
1367 -0.0040774
1368 -0.00510757
1369 -0.00637348
1370 -0.00557446
1371 -0.00865277
1372 -0.00839013
1373 -0.00787523
1374 -0.00863116
1375 -0.00934039
1376 -0.00837225
1377 -0.0126806
1378 -0.0115483
1379 -0.0139941
1380 -0.0154394
1381 -0.00834116
1382 -0.0113776
1383 -0.0155269
1384 -0.00963356
1385 -0.0148745
1386 -0.00880295
1387 -0.0114248
1388 -0.00948867
1389 -0.00825403
1390 -0.00850009
1391 -0.00836656
1392 -0.00471585
1393 -0.00595202
1394 -0.00468245
1395 -0.00374475
1396 -0.00750401
1397 -0.00567207
1398 -0.00832673
1399 -0.00839888
1400 -0.00639774
1401 -0.00747185
1402 -0.00762171
1403 -0.00745844
1404 -0.009123
1405 -0.010102
1406 -0.0063713
1407 -0.00978283
1408 -0.00813927
1409 -0.00693479
1410 -0.0150546
1411 -0.00885523
1412 -0.0101787
1413 -0.0148704
1414 -0.0102074
1415 -0.012692
1416 -0.0139773
1417 -0.00672346
1418 -0.00883944
1419 -0.00713437
1420 -0.00556891
1421 -0.00947625
1422 -0.00703919
1423 -0.0138227
1424 -0.00916542
1425 -0.0120775
1426 -0.011851
1427 -0.00677087
1428 -0.00691263
1429 -0.00847478
1430 -0.00684822
1431 -0.00700655
1432 -0.00810825
1433 -0.00545137
1434 -0.00530157
1435 -0.00938158
1436 -0.00715436
1437 -0.00846887
1438 -0.00953536
1439 -0.00802715
1440 -0.0150352
1441 -0.0151316
1442 -0.00829444
1443 -0.0126494
1444 -0.00854663
1445 -0.00671968
1446 -0.0119639
1447 -0.0098291
1448 -0.0127467
1449 -0.0112377
1450 -0.0204874
1451 -0.0175165
1452 -0.0111175
1453 -0.0166435
1454 -0.00792337
1455 -0.00789827
1456 -0.00819194
1457 -0.00864011
1458 -0.00630736
1459 -0.00706009
1460 -0.008677
1461 -0.00662058
1462 -0.00939329
1463 -0.00548357
1464 -0.00871566
1465 -0.00738124
1466 -0.00655621
1467 -0.00901259
1468 -0.0111682
1469 -0.00977683
1470 -0.00848053
1471 -0.015608
1472 -0.0115368
1473 -0.0114601
1474 -0.0143228
1475 -0.00977978
1476 -0.0107157
1477 -0.0105916
1478 -0.0138728
1479 -0.00855955
1480 -0.0105653
1481 -0.0084828
1482 -0.0083466
1483 -0.00663512
1484 -0.0077008
1485 -0.00831153
1486 -0.00633589
1487 -0.0119072
1488 -0.0102694
1489 -0.00874379
1490 -0.00509885
1491 -0.00572176
1492 -0.0066146
1493 -0.00522912
1494 -0.00713558
1495 -0.00742946
1496 -0.007402
1497 -0.00940567
1498 -0.00735021
1499 -0.0118228
1500 -0.00589155
1501 -0.00879534
1502 -0.00733902
1503 -0.00696888
1504 -0.00925025
1505 -0.0080483
1506 -0.0109855
1507 -0.00945809
1508 -0.00772321
1509 -0.00983069
1510 -0.00208528
1511 -0.00531014
1512 -0.00751657
1513 -0.00611586
1514 -0.0116521
1515 -0.00972106
1516 -0.00882858
1517 -0.0086837
1518 -0.00793287
1519 -0.00761604
1520 -0.0078582
1521 -0.0009937
1522 -0.00568818
1523 0.00400962
1524 0.000111099
1525 -0.00182197
1526 0.000106679
1527 -0.00775254
1528 -0.00559343
1529 -0.00985658
1530 -0.00802834
1531 -0.0148631
1532 -0.0111587
1533 -0.0138413
1534 -0.0150454
1535 0.00152155
1536 -0.00701532
1537 0.00640418
1538 0.00406811
1539 -0.00516435
1540 -0.00116201
1541 -0.0095211
1542 -0.00936193
1543 -0.0110348
1544 -0.00691802
1545 -0.0088349
1546 -0.00326199
1547 -0.00653508
1548 0.00224722
1549 0.000373437
1550 -0.00141742
1551 0.00444027
1552 -0.01041
1553 -0.00386769
1554 -0.00918643
1555 -0.00976257
1556 -0.00733968
1557 -0.00886794
1558 -0.00991733
1559 -0.0119694
1560 -0.00485097
1561 -0.0115206
1562 0.00510879
1563 0.00171781
1564 0.00214954
1565 0.00782339
1566 -0.00395501
1567 -0.00559826
1568 -0.00566404
1569 -0.00537649
1570 -0.00723447
1571 -0.00418679
1572 -0.0050814
1573 -0.00287796
1574 -0.00318215
1575 -0.00443177
1576 -0.00133542
1577 -0.011785
1578 -0.00701285
1579 -0.0130447
1580 -0.0138876
1581 -0.00534412
1582 -0.00951454
1583 -0.00152518
1584 -0.00321221
1585 -0.00504242
1586 -0.00359565
1587 -0.00689402
1588 -0.00573383
1589 0.00146251
1590 -0.00215222
1591 0.00103021
1592 0.00254439
1593 0.00325807
1594 -0.00464137
1595 -0.00283355
1596 -0.00457498
1597 -0.00519126
1598 -0.00413082
1599 -0.00409574
1600 -0.00360545
1601 -0.00406054
1602 -0.00472417
1603 -0.00469317
1604 -0.00898555
1605 -0.00855052
1606 -0.0111016
1607 -0.0113811
1608 -0.00605245
1609 -0.00732075
1610 -0.00486059
1611 -0.00247162
1612 -0.00879088
1613 -0.00593994
1614 -0.00250993
1615 -0.00846737
1616 0.0109831
1617 0.00381881
1618 0.00797564
1619 -0.0024636
1620 0.00245838
1621 -0.00391529
1622 -0.00395645
1623 -0.00326362
1624 -0.00395245
1625 -0.00442215
1626 -0.00386806
1627 -0.00467622
1628 -0.00408327
1629 -0.00583818
1630 -0.003977
1631 -0.0100867
1632 -0.00733114
1633 -0.0115275
1634 -0.0123667
1635 -0.00932748
1636 -0.00950525
1637 -0.00903424
1638 -0.00801918
1639 -0.00835192
1640 -0.00897385
1641 0.00119942
1642 -0.00254173
1643 0.00444845
1644 0.00831889
1645 -0.00912294
1646 -0.00440907
1647 -0.00421185
1648 -0.00273026
1649 -0.00296369
1650 -0.00410193
1651 -0.00290941
1652 -0.00726039
1653 -0.00516455
1654 -0.0114367
1655 -0.00755382
1656 -0.0100574
1657 -0.0102055
1658 -0.00560053
1659 -0.00799348
1660 -0.00585914
1661 -0.00756007
1662 -0.00796876
1663 -0.00883648
1664 -0.00917362
1665 -0.00906376
1666 -0.00821842
1667 -0.0089631
1668 -0.00925702
1669 -0.00493524
1670 -0.00683812
1671 -0.0100314
1672 -0.0136501
1673 -0.00661927
1674 -0.00602227
1675 -0.00664164
1676 -0.00395847
1677 -0.00730668
1678 -0.00517137
1679 -0.0102257
1680 -0.00723126
1681 -0.0161733
1682 -0.0133374
1683 -0.0063165
1684 -0.0113079
1685 -0.00159652
1686 -0.00220072
1687 -0.00585589
1688 -0.00307336
1689 -0.00979105
1690 -0.00697301
1691 -0.00959017
1692 -0.00893386
1693 -0.00912874
1694 -0.0082297
1695 -0.0165777
1696 -0.0133409
1697 0.0130685
1698 0.0144493
1699 0.0156168
1700 0.0168678
1701 0.0144576
1702 0.0234519
1703 0.0225284
1704 0.00904518
1705 0.0170976
1706 0.00344159
1707 0.00452201
1708 0.0113498
1709 0.00699417
1710 0.0157249
1711 0.018072
1712 0.00851108
1713 0.0132203
1714 0.013995
1715 0.00927429
1716 0.0133879
1717 0.0151145
1718 0.00199865
1719 0.00705769
1720 0.000998625
1721 6.1495e-05
1722 0.00681224
1723 0.010407
1724 0.0107088
1725 0.00858565
1726 0.0124103
1727 0.0133145
1728 0.013878
1729 0.00890177
1730 0.0186321
1731 -7.66865e-06
1732 0.00641538
1733 0.00201752
1734 0.00177225
1735 0.00629793
1736 0.00767632
1737 0.0025853
1738 0.00922034
1739 0.00484844
1740 0.00512051
1741 0.0120107
1742 0.0127007
1743 0.00423219
1744 0.0120365
1745 -0.00356442
1746 0.000292795
1747 0.00299584
1748 -0.000882485
1749 0.00414116
1750 0.00764589
1751 0.00640323
1752 0.00725016
1753 0.00725895
1754 0.00216417
1755 0.00644145
1756 -0.00291838
1757 0.000781315
1758 -0.000733755
1759 -0.0017762
1760 4.06187e-05
1761 0.000463581
1762 -0.00121452
1763 0.000209021
1764 0.000108524
1765 -0.00134054
1766 0.00626049
1767 0.0027103
1768 0.00703892
1769 0.00748305
1770 0.0035897
1771 0.0040268
1772 0.000910404
1773 -0.000822292
1774 0.00113746
1775 0.00844429
1776 0.00428382
1777 0.016733
1778 0.0110117
1779 0.00958517
1780 0.0124352
1781 -0.000553296
1782 0.00101091
1783 0.00429466
1784 -0.00221362
1785 0.00701668
1786 0.00388117
1787 0.00210054
1788 0.00153981
1789 0.0058984
1790 0.000160883
1791 0.0115834
1792 0.00619059
1793 0.0100107
1794 0.00877395
1795 0.0124496
1796 0.00857046
1797 0.0120296
1798 0.0110356
1799 0.00508148
1800 0.00566061
1801 0.00552793
1802 0.0135759
1803 0.00925122
1804 0.0157772
1805 0.0185284
1806 0.00623501
1807 0.0112889
1808 0.00807146
1809 0.00355347
1810 0.0188913
1811 0.0114694
1812 0.0116727
1813 0.0144711
1814 0.00729259
1815 0.00590953
1816 0.0141987
1817 0.00993227
1818 0.0115785
1819 0.0153388
1820 0.00667638
1821 0.00957277
1822 0.0107777
1823 0.011656
1824 0.00679696
1825 0.0126537
1826 0.00572383
1827 0.00952384
1828 0.00572227
1829 0.0129839
1830 0.012468
1831 0.00657066
1832 0.0115995
1833 0.00409172
1834 0.00531153
1835 0.0120309
1836 0.00885233
1837 0.0157266
1838 0.0182618
1839 0.011877
1840 0.0134355
1841 0.0121766
1842 0.0104491
1843 0.00895456
1844 0.0122048
1845 0.000410172
1846 0.0071421
1847 -0.00236693
1848 0.000759037
1849 0.000801224
1850 0.00200691
1851 0.00328574
1852 0.0033866
1853 0.00823913
1854 0.017192
1855 0.0125994
1856 0.00885055
1857 0.0140378
1858 -5.58483e-05
1859 0.00369044
1860 0.0029284
1861 0.00172678
1862 0.00820316
1863 0.00747911
1864 0.0141705
1865 0.0115215
1866 0.0215492
1867 0.0173027
1868 0.0115835
1869 0.0161451
1870 0.00151939
1871 0.00586287
1872 -0.000744705
1873 -0.0014589
1874 0.00224304
1875 -0.00200683
1876 0.00277301
1877 0.000774969
1878 0.00330931
1879 0.00912522
1880 0.00465652
1881 0.011024
1882 0.0162837
1883 -0.00121404
1884 0.00661209
1885 -0.00109584
1886 -0.00202694
1887 0.0039049
1888 0.00191864
1889 0.00592716
1890 0.00567923
1891 0.0136769
1892 0.0115053
1893 0.0145302
1894 0.020613
1895 0.00485823
1896 0.0107966
1897 0.00248006
1898 0.00153107
1899 0.010076
1900 0.00364393
1901 0.00953405
1902 0.00983195
1903 -0.000780859
1904 0.00371888
1905 -0.00204439
1906 0.00840197
1907 0.00440498
1908 0.00382338
1909 0.00793307
1910 -0.00132397
1911 -0.00209557
1912 0.00706405
1913 0.000190357
1914 0.00831582
1915 0.00721833
1916 0.000628847
1917 0.00394973
1918 0.00645561
1919 0.00479341
1920 0.00913708
1921 0.0099406
1922 0.00547948
1923 0.00648635
1924 0.00650909
1925 0.00450098
1926 0.0109422
1927 0.0109038
1928 0.00237109
1929 0.00965151
1930 -0.00310861
1931 0.0091123
1932 0.00138227
1933 0.0168325
1934 0.0116694
1935 0.00597038
1936 0.00920234
1937 0.00663669
1938 0.00194144
1939 0.0188765
1940 0.0123351
1941 0.00836742
1942 0.0141729
1943 0.00224512
1944 0.000533024
1945 0.0115367
1946 0.00518304
1947 0.0121952
1948 0.0125284
1949 0.00423263
1950 0.00747146
1951 0.0041387
1952 0.00420442
1953 0.00656448
1954 0.00680815
1955 0.0027838
1956 0.00355325
1957 0.00993826
1958 0.016549
1959 0.0119628
1960 0.0138883
1961 0.0196405
1962 0.00196021
1963 0.00744077
1964 0.0100246
1965 0.00519036
1966 0.0127846
1967 0.0166394
1968 0.00334582
1969 0.00897159
1970 0.0054459
1971 0.00332354
1972 0.011517
1973 0.0112744
1974 0.00432339
1975 0.0113348
1976 0.000175524
1977 0.00210313
1978 0.00639844
1979 0.00243621
1980 0.0112515
1981 0.008524
1982 0.00921347
1983 0.00807673
1984 0.00954396
1985 0.0137583
1986 0.0121839
1987 0.0111644
1988 0.0130189
1989 0.0088003
1990 0.00542363
1991 0.0139902
1992 0.00990752
1993 0.00750522
1994 0.0110655
1995 0.00182415
1996 0.00291982
1997 0.00579191
1998 0.00379162
1999 0.0037149
2000 0.00710105
2001 -0.000636232
2002 0.000875485
2003 0.0052095
2004 0.00065736
2005 0.0108227
2006 0.00802706
2007 0.0100366
2008 0.0120136
2009 0.00313502
2010 0.00924054
2011 0.00549876
2012 0.0207142
2013 0.014702
2014 0.01598
2015 0.0177285
2016 0.015863
2017 0.0132702
2018 0.0135095
2019 0.0165272
2020 0.00410401
2021 0.0082052
2022 0.00559256
2023 0.00300557
2024 0.00838645
2025 0.00671935
2026 0.00428235
2027 0.00447733
2028 0.00988748
2029 0.00263652
2030 0.0142685
2031 0.0109781
2032 0.00699708
2033 0.0104149
2034 0.00557221
2035 0.00240897
2036 0.000950571
2037 0.0112063
2038 0.0077093
2039 0.0151864
2040 0.0186158
2041 0.0104425
2042 0.0152384
2043 0.00890702
2044 0.0128329
2045 0.00126464
2046 0.00895018
2047 0.000670889
2048 0.00140171
2049 0.00883436
2050 0.00607541
2051 0.00673558
2052 0.0100444
2053 0.00573148
2054 0.00547852
2055 0.0159096
2056 0.0128207
2057 0.00905354
2058 0.0162399
2059 0.000936689
2060 0.00477174
2061 0.00136746
2062 0.0041462
2063 0.0025129
2064 0.00751211
2065 0.0068196
2066 0.00741155
2067 0.00946731
2068 0.00401513
2069 0.00725951
2070 -0.000733087
2071 0.00314019
2072 -0.00327137
2073 -0.00265164
2074 0.00347721
2075 -0.000676583
2076 0.00393154
2077 0.00641627
2078 -0.00238888
2079 0.00273852
2080 0.00206524
2081 0.000931465
2082 0.00514266
2083 0.00855924
2084 0.000809676
2085 0.00493363
2086 0.000684352
2087 0.00972294
2088 0.00466252
2089 0.0106806
2090 0.00615442
2091 0.0144091
2092 0.00787618
2093 0.0110702
2094 0.0093249
2095 0.00264188
2096 0.00355575
2097 0.00342122
2098 -0.000805792
2099 0.0114768
2100 0.00227148
2101 0.00999642
2102 0.00721849
2103 0.00369908
2104 0.00262486
2105 0.00478915
2106 -0.000850951
2107 0.00442584
2108 0.00179133
2109 0.000371014
2110 0.00144123
2111 0.0037209
2112 -0.000148027
ITEM: TIMESTEP
2
ITEM: NUMBER OF ATOMS
832
ITEM: BOX BOUNDS pp pp ff
0.0000000000000000e+00 3.2200000000000003e+01
0.0000000000000000e+00 3.4399999999999999e+01
-6.3250000000000000e+01 6.3250000000000000e+01
ITEM: ATOMS id q
1281 -0.00459037
1282 -0.00688661
1283 -0.00870982
1284 -0.00949645
1285 -0.0084068
1286 -0.0111262
1287 -0.0108427
1288 -0.00611873
1289 -0.00874541
1290 -0.00766083
1291 -0.00783926
1292 -0.00839542
1293 -0.0131368
1294 -0.00337895
1295 -0.00633434
1296 -0.00515246
1297 -0.00282955
1298 -0.00893743
1299 -0.00719134
1300 -0.00924192
1301 -0.0108674
1302 -0.00320308
1303 -0.00885357
1304 0.000574874
1305 -0.00380539
1306 -0.00625439
1307 -0.00594906
1308 -0.00259512
1309 -0.0083968
1310 -0.00685914
1311 -0.0113734
1312 -0.0102344
1313 -0.0088812
1314 -0.0118832
1315 -0.00551063
1316 -0.00642017
1317 -0.00735107
1318 -0.00598615
1319 -0.00657702
1320 -0.00704072
1321 -0.00594708
1322 -0.00518108
1323 -0.00838138
1324 -0.00662532
1325 -0.0097741
1326 -0.00931696
1327 -0.00702497
1328 -0.00892269
1329 0.000521417
1330 -0.00250389
1331 0.000301837
1332 0.00327386
1333 -0.0116164
1334 -0.010285
1335 -0.00892579
1336 -0.00864005
1337 -0.00911214
1338 -0.0081841
1339 -0.00906829
1340 -0.00616062
1341 -0.00799544
1342 -0.00664399
1343 -0.00590241
1344 -0.00878592
1345 -0.00791268
1346 -0.00782189
1347 -0.00799792
1348 -0.00816256
1349 -0.00706204
1350 -0.0109424
1351 -0.00885107
1352 -0.0136191
1353 -0.0110209
1354 -0.00938458
1355 -0.0103681
1356 -0.0060114
1357 -0.00345654
1358 -0.00607994
1359 -0.0131592
1360 -0.0171795
1361 -0.00814667
1362 -0.010332
1363 -0.00709879
1364 -0.00776583
1365 -0.00579394
1366 -0.00695059
1367 -0.00408078
1368 -0.00511518
1369 -0.00637728
1370 -0.00558481
1371 -0.00865541
1372 -0.00839883
1373 -0.00788374
1374 -0.00863978
1375 -0.00934341
1376 -0.00837579
1377 -0.0126834
1378 -0.0115444
1379 -0.0140213
1380 -0.0154246
1381 -0.00838969
1382 -0.01141
1383 -0.0155281
1384 -0.00965598
1385 -0.0148828
1386 -0.00883448
1387 -0.0114374
1388 -0.00951163
1389 -0.00828364
1390 -0.00849485
1391 -0.00837962
1392 -0.00470063
1393 -0.00594405
1394 -0.00466808
1395 -0.00373634
1396 -0.00749907
1397 -0.00566405
1398 -0.00834069
1399 -0.00840072
1400 -0.00641581
1401 -0.00748548
1402 -0.00764244
1403 -0.00747156
1404 -0.00915843
1405 -0.0101247
1406 -0.0064239
1407 -0.00983163
1408 -0.00818666
1409 -0.00698793
1410 -0.0150778
1411 -0.00889728
1412 -0.0102143
1413 -0.0149195
1414 -0.0102517
1415 -0.0126925
1416 -0.0140003
1417 -0.00670146
1418 -0.00882624
1419 -0.00710961
1420 -0.0055452
1421 -0.00945986
1422 -0.00701678
1423 -0.0138236
1424 -0.00915925
1425 -0.0120907
1426 -0.0118662
1427 -0.00678686
1428 -0.00693275
1429 -0.00849303
1430 -0.00686931
1431 -0.00703454
1432 -0.00813807
1433 -0.00548316
1434 -0.00533993
1435 -0.00941925
1436 -0.00719382
1437 -0.00850294
1438 -0.00957364
1439 -0.00807027
1440 -0.0150347
1441 -0.015173
1442 -0.00827746
1443 -0.0126414
1444 -0.00851913
1445 -0.00670006
1446 -0.0119414
1447 -0.00980357
1448 -0.0127231
1449 -0.0112248
1450 -0.0204257
1451 -0.0174874
1452 -0.0111026
1453 -0.0166198
1454 -0.00792445
1455 -0.00790389
1456 -0.00819905
1457 -0.00864702
1458 -0.00632232
1459 -0.00707644
1460 -0.00869211
1461 -0.00663883
1462 -0.00942148
1463 -0.00550207
1464 -0.00874069
1465 -0.00738211
1466 -0.00657476
1467 -0.00900199
1468 -0.0111514
1469 -0.00978048
1470 -0.00847018
1471 -0.0155971
1472 -0.0115186
1473 -0.011455
1474 -0.0142975
1475 -0.00975873
1476 -0.0106953
1477 -0.0105665
1478 -0.0138246
1479 -0.0085488
1480 -0.0105437
1481 -0.00847652
1482 -0.00833996
1483 -0.00664097
1484 -0.00770323
1485 -0.00831263
1486 -0.00634541
1487 -0.0119164
1488 -0.0102753
1489 -0.00875036
1490 -0.0051024
1491 -0.00573197
1492 -0.00660899
1493 -0.00522634
1494 -0.00714907
1495 -0.00742848
1496 -0.00744403
1497 -0.00943521
1498 -0.00739007
1499 -0.011859
1500 -0.00591168
1501 -0.00881565
1502 -0.00734712
1503 -0.0069726
1504 -0.00925607
1505 -0.00804549
1506 -0.0109773
1507 -0.00945329
1508 -0.0077126
1509 -0.00981677
1510 -0.00208209
1511 -0.00531027
1512 -0.0075004
1513 -0.00610733
1514 -0.0116461
1515 -0.00973269
1516 -0.00883463
1517 -0.00867513
1518 -0.00793792
1519 -0.00760079
1520 -0.00784702
1521 -0.000995502
1522 -0.00569078
1523 0.00399708
1524 9.02593e-05
1525 -0.00184658
1526 7.57265e-05
1527 -0.00777509
1528 -0.00562198
1529 -0.00986764
1530 -0.00804539
1531 -0.0148474
1532 -0.0111779
1533 -0.0137819
1534 -0.0150108
1535 0.00154547
1536 -0.00699513
1537 0.00642832
1538 0.00408481
1539 -0.0051569
1540 -0.00114744
1541 -0.00951512
1542 -0.00935358
1543 -0.0110373
1544 -0.00689883
1545 -0.00882071
1546 -0.00325097
1547 -0.00651612
1548 0.00225159
1549 0.000382281
1550 -0.00142752
1551 0.00443992
1552 -0.010408
1553 -0.00388253
1554 -0.00916875
1555 -0.00976436
1556 -0.00731758
1557 -0.00885907
1558 -0.0098541
1559 -0.0119283
1560 -0.00480858
1561 -0.0114481
1562 0.00515468
1563 0.0017568
1564 0.00217632
1565 0.00785962
1566 -0.00394202
1567 -0.00559259
1568 -0.0056564
1569 -0.00536053
1570 -0.00722273
1571 -0.00417509
1572 -0.00506538
1573 -0.00287532
1574 -0.00317464
1575 -0.00443961
1576 -0.00133712
1577 -0.0117759
1578 -0.00702356
1579 -0.0130022
1580 -0.0138604
1581 -0.00532042
1582 -0.00948087
1583 -0.00151129
1584 -0.00318998
1585 -0.00502312
1586 -0.00357109
1587 -0.00684141
1588 -0.00569887
1589 0.00150913
1590 -0.00209091
1591 0.0010439
1592 0.00257168
1593 0.00324756
1594 -0.00464034
1595 -0.00283343
1596 -0.00456514
1597 -0.00517943
1598 -0.00412052
1599 -0.00408446
1600 -0.00359933
1601 -0.00405415
1602 -0.00472025
1603 -0.00469301
1604 -0.00896551
1605 -0.00853758
1606 -0.0110787
1607 -0.0113493
1608 -0.00604727
1609 -0.00730181
1610 -0.00486444
1611 -0.00246968
1612 -0.008781
1613 -0.00593438
1614 -0.00247176
1615 -0.00843205
1616 0.0110033
1617 0.00386207
1618 0.00797759
1619 -0.00248295
1620 0.00243737
1621 -0.0039227
1622 -0.00396781
1623 -0.00325732
1624 -0.00394961
1625 -0.00441517
1626 -0.00385802
1627 -0.00466485
1628 -0.00407629
1629 -0.00581537
1630 -0.00396439
1631 -0.0100565
1632 -0.00731174
1633 -0.0115088
1634 -0.0123406
1635 -0.00935046
1636 -0.00950758
1637 -0.00903552
1638 -0.00803483
1639 -0.00833636
1640 -0.00896354
1641 0.00121114
1642 -0.00252163
1643 0.00443015
1644 0.00832721
1645 -0.00916643
1646 -0.00441962
1647 -0.00423299
1648 -0.00272823
1649 -0.00296917
1650 -0.00409556
1651 -0.00290438
1652 -0.00725156
1653 -0.00516097
1654 -0.0113797
1655 -0.00753329
1656 -0.0100064
1657 -0.0101519
1658 -0.00556922
1659 -0.00795776
1660 -0.00585721
1661 -0.00754041
1662 -0.00797602
1663 -0.00885361
1664 -0.00915891
1665 -0.00906009
1666 -0.00821552
1667 -0.00894964
1668 -0.00928047
1669 -0.00493799
1670 -0.00687745
1671 -0.0100379
1672 -0.0136865
1673 -0.00661469
1674 -0.00602582
1675 -0.0066324
1676 -0.00395427
1677 -0.00729661
1678 -0.00516344
1679 -0.0101877
1680 -0.00721856
1681 -0.0160498
1682 -0.013267
1683 -0.0062775
1684 -0.0112385
1685 -0.00159899
1686 -0.00218426
1687 -0.0058672
1688 -0.00307495
1689 -0.00979152
1690 -0.00697594
1691 -0.00957884
1692 -0.00892542
1693 -0.00911425
1694 -0.00822225
1695 -0.0165965
1696 -0.0133516
1697 0.0130841
1698 0.0144533
1699 0.0156278
1700 0.0168789
1701 0.0144577
1702 0.023473
1703 0.0225375
1704 0.00904455
1705 0.0170959
1706 0.00342822
1707 0.00450895
1708 0.0113177
1709 0.00697121
1710 0.0156921
1711 0.0180364
1712 0.00850501
1713 0.0132002
1714 0.0140033
1715 0.00925028
1716 0.0134043
1717 0.0150929
1718 0.00200839
1719 0.00705
1720 0.00101118
1721 7.04568e-05
1722 0.00682999
1723 0.0104117
1724 0.0107182
1725 0.00859221
1726 0.0124137
1727 0.0133457
1728 0.0138961
1729 0.00892248
1730 0.0186672
1731 -2.47274e-06
1732 0.00642363
1733 0.00201277
1734 0.00176614
1735 0.00628725
1736 0.00765459
1737 0.00260097
1738 0.00919972
1739 0.00489281
1740 0.00514035
1741 0.0120723
1742 0.0127523
1743 0.00425472
1744 0.0120861
1745 -0.00356704
1746 0.000303427
1747 0.00299809
1748 -0.000878701
1749 0.00413529
1750 0.00765166
1751 0.0064037
1752 0.00727557
1753 0.0072733
1754 0.00219591
1755 0.00646827
1756 -0.00289146
1757 0.00080783
1758 -0.000723079
1759 -0.00176369
1760 6.33508e-05
1761 0.000471879
1762 -0.00119756
1763 0.000231067
1764 0.00013535
1765 -0.00131487
1766 0.00628528
1767 0.00275189
1768 0.00704836
1769 0.00751878
1770 0.00357031
1771 0.00403128
1772 0.000892573
1773 -0.0008388
1774 0.00112895
1775 0.00844025
1776 0.00427617
1777 0.0167515
1778 0.0110147
1779 0.00962177
1780 0.0124672
1781 -0.000516666
1782 0.00104802
1783 0.00430874
1784 -0.00218071
1785 0.00701881
1786 0.00389125
1787 0.00209305
1788 0.00155037
1789 0.00588557
1790 0.000157684
1791 0.0115745
1792 0.00618941
1793 0.0100048
1794 0.00877456
1795 0.012428
1796 0.00856272
1797 0.0120053
1798 0.0110057
1799 0.00507323
1800 0.0056435
1801 0.00552775
1802 0.0135731
1803 0.00924761
1804 0.0157972
1805 0.0185416
1806 0.00625055
1807 0.0113188
1808 0.00806747
1809 0.00357203
1810 0.018861
1811 0.0114625
1812 0.0116592
1813 0.0144568
1814 0.00728602
1815 0.00589844
1816 0.0141947
1817 0.00992208
1818 0.0115711
1819 0.0153276
1820 0.00666743
1821 0.00956318
1822 0.0107692
1823 0.0116409
1824 0.00680061
1825 0.0126461
1826 0.00572416
1827 0.00951398
1828 0.00571966
1829 0.0129743
1830 0.0124605
1831 0.00657067
1832 0.0116008
1833 0.00409119
1834 0.00531632
1835 0.0120016
1836 0.0088382
1837 0.0156942
1838 0.018218
1839 0.0118753
1840 0.0134179
1841 0.0121832
1842 0.0104519
1843 0.00895275
1844 0.0122068
1845 0.000402974
1846 0.0071372
1847 -0.00239456
1848 0.00074843
1849 0.000795554
1850 0.00198843
1851 0.0032865
1852 0.00339289
1853 0.00823546
1854 0.0171781
1855 0.01259
1856 0.0088377
1857 0.0140211
1858 -5.29617e-05
1859 0.00368446
1860 0.00292283
1861 0.00173012
1862 0.00817997
1863 0.00745958
1864 0.0141593
1865 0.0114966
1866 0.0215784
1867 0.0173087
1868 0.011587
1869 0.0161642
1870 0.00150383
1871 0.00585422
1872 -0.000744837
1873 -0.00146818
1874 0.00224428
1875 -0.00201881
1876 0.00276815
1877 0.000771158
1878 0.00330328
1879 0.00916815
1880 0.00468617
1881 0.0110278
1882 0.0162906
1883 -0.00123701
1884 0.00660055
1885 -0.00111154
1886 -0.00204001
1887 0.00388706
1888 0.00190944
1889 0.00590174
1890 0.00565924
1891 0.0136619
1892 0.011488