ITEM: TIMESTEP
0
ITEM: NUMBER OF ATOMS
832
ITEM: BOX BOUNDS pp pp ff
0.0000000000000000e+00 3.2200000000000003e+01
0.0000000000000000e+00 3.4399999999999999e+01
-6.3250000000000000e+01 6.3250000000000000e+01
ITEM: ATOMS id q
1281 0
1282 0
1283 0
1284 0
1285 0
1286 0
1287 0
1288 0
1289 0
1290 0
1291 0
1292 0
1293 0
1294 0
1295 0
1296 0
1297 0
1298 0
1299 0
1300 0
1301 0
1302 0
1303 0
1304 0
1305 0
1306 0
1307 0
1308 0
1309 0
1310 0
1311 0
1312 0
1313 0
1314 0
1315 0
1316 0
1317 0
1318 0
1319 0
1320 0
1321 0
1322 0
1323 0
1324 0
1325 0
1326 0
1327 0
1328 0
1329 0
1330 0
1331 0
1332 0
1333 0
1334 0
1335 0
1336 0
1337 0
1338 0
1339 0
1340 0
1341 0
1342 0
1343 0
1344 0
1345 0
1346 0
1347 0
1348 0
1349 0
1350 0
1351 0
1352 0
1353 0
1354 0
1355 0
1356 0
1357 0
1358 0
1359 0
1360 0
1361 0
1362 0
1363 0
1364 0
1365 0
1366 0
1367 0
1368 0
1369 0
1370 0
1371 0
1372 0
1373 0
1374 0
1375 0
1376 0
1377 0
1378 0
1379 0
1380 0
1381 0
1382 0
1383 0
1384 0
1385 0
1386 0
1387 0
1388 0
1389 0
1390 0
1391 0
1392 0
1393 0
1394 0
1395 0
1396 0
1397 0
1398 0
1399 0
1400 0
1401 0
1402 0
1403 0
1404 0
1405 0
1406 0
1407 0
1408 0
1409 0
1410 0
1411 0
1412 0
1413 0
1414 0
1415 0
1416 0
1417 0
1418 0
1419 0
1420 0
1421 0
1422 0
1423 0
1424 0
1425 0
1426 0
1427 0
1428 0
1429 0
1430 0
1431 0
1432 0
1433 0
1434 0
1435 0
1436 0
1437 0
1438 0
1439 0
1440 0
1441 0
1442 0
1443 0
1444 0
1445 0
1446 0
1447 0
1448 0
1449 0
1450 0
1451 0
1452 0
1453 0
1454 0
1455 0
1456 0
1457 0
1458 0
1459 0
1460 0
1461 0
1462 0
1463 0
1464 0
1465 0
1466 0
1467 0
1468 0
1469 0
1470 0
1471 0
1472 0
1473 0
1474 0
1475 0
1476 0
1477 0
1478 0
1479 0
1480 0
1481 0
1482 0
1483 0
1484 0
1485 0
1486 0
1487 0
1488 0
1489 0
1490 0
1491 0
1492 0
1493 0
1494 0
1495 0
1496 0
1497 0
1498 0
1499 0
1500 0
1501 0
1502 0
1503 0
1504 0
1505 0
1506 0
1507 0
1508 0
1509 0
1510 0
1511 0
1512 0
1513 0
1514 0
1515 0
1516 0
1517 0
1518 0
1519 0
1520 0
1521 0
1522 0
1523 0
1524 0
1525 0
1526 0
1527 0
1528 0
1529 0
1530 0
1531 0
1532 0
1533 0
1534 0
1535 0
1536 0
1537 0
1538 0
1539 0
1540 0
1541 0
1542 0
1543 0
1544 0
1545 0
1546 0
1547 0
1548 0
1549 0
1550 0
1551 0
1552 0
1553 0
1554 0
1555 0
1556 0
1557 0
1558 0
1559 0
1560 0
1561 0
1562 0
1563 0
1564 0
1565 0
1566 0
1567 0
1568 0
1569 0
1570 0
1571 0
1572 0
1573 0
1574 0
1575 0
1576 0
1577 0
1578 0
1579 0
1580 0
1581 0
1582 0
1583 0
1584 0
1585 0
1586 0
1587 0
1588 0
1589 0
1590 0
1591 0
1592 0
1593 0
1594 0
1595 0
1596 0
1597 0
1598 0
1599 0
1600 0
1601 0
1602 0
1603 0
1604 0
1605 0
1606 0
1607 0
1608 0
1609 0
1610 0
1611 0
1612 0
1613 0
1614 0
1615 0
1616 0
1617 0
1618 0
1619 0
1620 0
1621 0
1622 0
1623 0
1624 0
1625 0
1626 0
1627 0
1628 0
1629 0
1630 0
1631 0
1632 0
1633 0
1634 0
1635 0
1636 0
1637 0
1638 0
1639 0
1640 0
1641 0
1642 0
1643 0
1644 0
1645 0
1646 0
1647 0
1648 0
1649 0
1650 0
1651 0
1652 0
1653 0
1654 0
1655 0
1656 0
1657 0
1658 0
1659 0
1660 0
1661 0
1662 0
1663 0
1664 0
1665 0
1666 0
1667 0
1668 0
1669 0
1670 0
1671 0
1672 0
1673 0
1674 0
1675 0
1676 0
1677 0
1678 0
1679 0
1680 0
1681 0
1682 0
1683 0
1684 0
1685 0
1686 0
1687 0
1688 0
1689 0
1690 0
1691 0
1692 0
1693 0
1694 0
1695 0
1696 0
1697 0
1698 0
1699 0
1700 0
1701 0
1702 0
1703 0
1704 0
1705 0
1706 0
1707 0
1708 0
1709 0
1710 0
1711 0
1712 0
1713 0
1714 0
1715 0
1716 0
1717 0
1718 0
1719 0
1720 0
1721 0
1722 0
1723 0
1724 0
1725 0
1726 0
1727 0
1728 0
1729 0
1730 0
1731 0
1732 0
1733 0
1734 0
1735 0
1736 0
1737 0
1738 0
1739 0
1740 0
1741 0
1742 0
1743 0
1744 0
1745 0
1746 0
1747 0
1748 0
1749 0
1750 0
1751 0
1752 0
1753 0
1754 0
1755 0
1756 0
1757 0
1758 0
1759 0
1760 0
1761 0
1762 0
1763 0
1764 0
1765 0
1766 0
1767 0
1768 0
1769 0
1770 0
1771 0
1772 0
1773 0
1774 0
1775 0
1776 0
1777 0
1778 0
1779 0
1780 0
1781 0
1782 0
1783 0
1784 0
1785 0
1786 0
1787 0
1788 0
1789 0
1790 0
1791 0
1792 0
1793 0
1794 0
1795 0
1796 0
1797 0
1798 0
1799 0
1800 0
1801 0
1802 0
1803 0
1804 0
1805 0
1806 0
1807 0
1808 0
1809 0
1810 0
1811 0
1812 0
1813 0
1814 0
1815 0
1816 0
1817 0
1818 0
1819 0
1820 0
1821 0
1822 0
1823 0
1824 0
1825 0
1826 0
1827 0
1828 0
1829 0
1830 0
1831 0
1832 0
1833 0
1834 0
1835 0
1836 0
1837 0
1838 0
1839 0
1840 0
1841 0
1842 0
1843 0
1844 0
1845 0
1846 0
1847 0
1848 0
1849 0
1850 0
1851 0
1852 0
1853 0
1854 0
1855 0
1856 0
1857 0
1858 0
1859 0
1860 0
1861 0
1862 0
1863 0
1864 0
1865 0
1866 0
1867 0
1868 0
1869 0
1870 0
1871 0
1872 0
1873 0
1874 0
1875 0
1876 0
1877 0
1878 0
1879 0
1880 0
1881 0
1882 0
1883 0
1884 0
1885 0
1886 0
1887 0
1888 0
1889 0
1890 0
1891 0
1892 0
1893 0
1894 0
1895 0
1896 0
1897 0
1898 0
1899 0
1900 0
1901 0
1902 0
1903 0
1904 0
1905 0
1906 0
1907 0
1908 0
1909 0
1910 0
1911 0
1912 0
1913 0
1914 0
1915 0
1916 0
1917 0
1918 0
1919 0
1920 0
1921 0
1922 0
1923 0
1924 0
1925 0
1926 0
1927 0
1928 0
1929 0
1930 0
1931 0
1932 0
1933 0
1934 0
1935 0
1936 0
1937 0
1938 0
1939 0
1940 0
1941 0
1942 0
1943 0
1944 0
1945 0
1946 0
1947 0
1948 0
1949 0
1950 0
1951 0
1952 0
1953 0
1954 0
1955 0
1956 0
1957 0
1958 0
1959 0
1960 0
1961 0
1962 0
1963 0
1964 0
1965 0
1966 0
1967 0
1968 0
1969 0
1970 0
1971 0
1972 0
1973 0
1974 0
1975 0
1976 0
1977 0
1978 0
1979 0
1980 0
1981 0
1982 0
1983 0
1984 0
1985 0
1986 0
1987 0
1988 0
1989 0
1990 0
1991 0
1992 0
1993 0
1994 0
1995 0
1996 0
1997 0
1998 0
1999 0
2000 0
2001 0
2002 0
2003 0
2004 0
2005 0
2006 0
2007 0
2008 0
2009 0
2010 0
2011 0
2012 0
2013 0
2014 0
2015 0
2016 0
2017 0
2018 0
2019 0
2020 0
2021 0
2022 0
2023 0
2024 0
2025 0
2026 0
2027 0
2028 0
2029 0
2030 0
2031 0
2032 0
2033 0
2034 0
2035 0
2036 0
2037 0
2038 0
2039 0
2040 0
2041 0
2042 0
2043 0
2044 0
2045 0
2046 0
2047 0
2048 0
2049 0
2050 0
2051 0
2052 0
2053 0
2054 0
2055 0
2056 0
2057 0
2058 0
2059 0
2060 0
2061 0
2062 0
2063 0
2064 0
2065 0
2066 0
2067 0
2068 0
2069 0
2070 0
2071 0
2072 0
2073 0
2074 0
2075 0
2076 0
2077 0
2078 0
2079 0
2080 0
2081 0
2082 0
2083 0
2084 0
2085 0
2086 0
2087 0
2088 0
2089 0
2090 0
2091 0
2092 0
2093 0
2094 0
2095 0
2096 0
2097 0
2098 0
2099 0
2100 0
2101 0
2102 0
2103 0
2104 0
2105 0
2106 0
2107 0
2108 0
2109 0
2110 0
2111 0
2112 0
ITEM: TIMESTEP
1
ITEM: NUMBER OF ATOMS
832
ITEM: BOX BOUNDS pp pp ff
0.0000000000000000e+00 3.2200000000000003e+01
0.0000000000000000e+00 3.4399999999999999e+01
-6.3250000000000000e+01 6.3250000000000000e+01
ITEM: ATOMS id q
1281 -0.00459121
1282 -0.00688933
1283 -0.00871123
1284 -0.00950308
1285 -0.00841241
1286 -0.0111342
1287 -0.0108537
1288 -0.00611806
1289 -0.00875368
1290 -0.00768299
1291 -0.00786153
1292 -0.0084248
1293 -0.0132421
1294 -0.00336126
1295 -0.00635473
1296 -0.00513086
1297 -0.00281155
1298 -0.00892307
1299 -0.00717356
1300 -0.0092381
1301 -0.0108593
1302 -0.00321063
1303 -0.00886131
1304 0.000565764
1305 -0.00382064
1306 -0.00626299
1307 -0.00594858
1308 -0.00259598
1309 -0.00839536
1310 -0.00685883
1311 -0.0113745
1312 -0.0102375
1313 -0.00887541
1314 -0.0118856
1315 -0.00549556
1316 -0.00641302
1317 -0.00733169
1318 -0.00597406
1319 -0.00655714
1320 -0.00702463
1321 -0.00592835
1322 -0.00516189
1323 -0.00836662
1324 -0.00660439
1325 -0.00977233
1326 -0.00930416
1327 -0.0070297
1328 -0.00892211
1329 0.000525062
1330 -0.00250533
1331 0.000304144
1332 0.00327528
1333 -0.0116329
1334 -0.0102713
1335 -0.0089273
1336 -0.00862504
1337 -0.00909851
1338 -0.00817706
1339 -0.0090631
1340 -0.00614739
1341 -0.00798602
1342 -0.00662385
1343 -0.00588502
1344 -0.00876515
1345 -0.00788692
1346 -0.00780908
1347 -0.00797927
1348 -0.00815609
1349 -0.00704866
1350 -0.0109475
1351 -0.00884488
1352 -0.0136485
1353 -0.0110329
1354 -0.009377
1355 -0.010383
1356 -0.00600017
1357 -0.00344105
1358 -0.00608418
1359 -0.0131561
1360 -0.0172018
1361 -0.00811778
1362 -0.0103106
1363 -0.00708471
1364 -0.00774351
1365 -0.00579041
1366 -0.00694271
1367 -0.00407739
1368 -0.00510756
1369 -0.00637348
1370 -0.00557445
1371 -0.00865277
1372 -0.00839013
1373 -0.00787524
1374 -0.00863115
1375 -0.0093404
1376 -0.00837224
1377 -0.0126805
1378 -0.0115483
1379 -0.0139941
1380 -0.0154394
1381 -0.00834115
1382 -0.0113776
1383 -0.0155269
1384 -0.00963355
1385 -0.0148745
1386 -0.00880295
1387 -0.0114248
1388 -0.00948866
1389 -0.00825403
1390 -0.00850007
1391 -0.00836658
1392 -0.00471585
1393 -0.00595202
1394 -0.00468245
1395 -0.00374478
1396 -0.00750402
1397 -0.00567208
1398 -0.00832677
1399 -0.00839887
1400 -0.00639776
1401 -0.00747183
1402 -0.0076217
1403 -0.00745844
1404 -0.00912302
1405 -0.010102
1406 -0.00637129
1407 -0.00978285
1408 -0.00813928
1409 -0.0069348
1410 -0.0150546
1411 -0.0088552
1412 -0.0101787
1413 -0.0148704
1414 -0.0102074
1415 -0.0126919
1416 -0.0139773
1417 -0.00672346
1418 -0.00883947
1419 -0.00713439
1420 -0.00556894
1421 -0.00947626
1422 -0.00703918
1423 -0.0138227
1424 -0.00916542
1425 -0.0120774
1426 -0.011851
1427 -0.00677087
1428 -0.00691264
1429 -0.00847479
1430 -0.00684823
1431 -0.00700657
1432 -0.00810824
1433 -0.00545138
1434 -0.00530157
1435 -0.00938158
1436 -0.00715437
1437 -0.00846886
1438 -0.00953534
1439 -0.00802714
1440 -0.0150352
1441 -0.0151316
1442 -0.00829446
1443 -0.0126494
1444 -0.00854664
1445 -0.00671967
1446 -0.0119639
1447 -0.00982911
1448 -0.0127467
1449 -0.0112377
1450 -0.0204874
1451 -0.0175165
1452 -0.0111175
1453 -0.0166436
1454 -0.00792337
1455 -0.00789827
1456 -0.00819194
1457 -0.00864012
1458 -0.00630735
1459 -0.00706008
1460 -0.00867702
1461 -0.00662057
1462 -0.00939329
1463 -0.00548357
1464 -0.00871568
1465 -0.00738127
1466 -0.0065562
1467 -0.00901259
1468 -0.0111682
1469 -0.00977684
1470 -0.00848053
1471 -0.015608
1472 -0.0115368
1473 -0.0114601
1474 -0.0143228
1475 -0.0097798
1476 -0.0107157
1477 -0.0105916
1478 -0.0138728
1479 -0.00855954
1480 -0.0105653
1481 -0.0084828
1482 -0.0083466
1483 -0.00663513
1484 -0.00770081
1485 -0.00831152
1486 -0.0063359
1487 -0.0119071
1488 -0.0102694
1489 -0.00874379
1490 -0.00509888
1491 -0.00572175
1492 -0.0066146
1493 -0.0052291
1494 -0.00713558
1495 -0.00742947
1496 -0.007402
1497 -0.00940566
1498 -0.00735021
1499 -0.0118228
1500 -0.00589153
1501 -0.00879534
1502 -0.00733903
1503 -0.0069689
1504 -0.00925027
1505 -0.00804831
1506 -0.0109855
1507 -0.00945809
1508 -0.00772322
1509 -0.00983068
1510 -0.00208529
1511 -0.00531014
1512 -0.00751658
1513 -0.00611587
1514 -0.0116521
1515 -0.00972107
1516 -0.0088286
1517 -0.00868369
1518 -0.00793286
1519 -0.00761605
1520 -0.00785821
1521 -0.000993705
1522 -0.00568818
1523 0.00400963
1524 0.000111098
1525 -0.00182193
1526 0.000106672
1527 -0.00775253
1528 -0.00559342
1529 -0.00985657
1530 -0.00802835
1531 -0.0148631
1532 -0.0111587
1533 -0.0138413
1534 -0.0150454
1535 0.00152156
1536 -0.00701531
1537 0.00640418
1538 0.00406813
1539 -0.00516435
1540 -0.001162
1541 -0.00952109
1542 -0.00936192
1543 -0.0110349
1544 -0.00691804
1545 -0.00883491
1546 -0.003262
1547 -0.00653508
1548 0.0022472
1549 0.000373441
1550 -0.0014174
1551 0.00444028
1552 -0.01041
1553 -0.00386769
1554 -0.00918641
1555 -0.00976257
1556 -0.00733966
1557 -0.00886793
1558 -0.00991733
1559 -0.0119694
1560 -0.00485095
1561 -0.0115206
1562 0.00510881
1563 0.00171779
1564 0.00214956
1565 0.00782338
1566 -0.003955
1567 -0.00559827
1568 -0.00566404
1569 -0.00537648
1570 -0.00723451
1571 -0.00418678
1572 -0.0050814
1573 -0.00287795
1574 -0.00318216
1575 -0.00443176
1576 -0.00133541
1577 -0.011785
1578 -0.00701285
1579 -0.0130447
1580 -0.0138876
1581 -0.0053441
1582 -0.00951451
1583 -0.00152519
1584 -0.00321221
1585 -0.0050424
1586 -0.00359565
1587 -0.00689402
1588 -0.00573386
1589 0.0014625
1590 -0.00215222
1591 0.00103019
1592 0.0025444
1593 0.00325804
1594 -0.00464137
1595 -0.00283354
1596 -0.00457497
1597 -0.00519127
1598 -0.00413081
1599 -0.00409574
1600 -0.00360544
1601 -0.00406055
1602 -0.00472415
1603 -0.00469314
1604 -0.00898555
1605 -0.0085505
1606 -0.0111016
1607 -0.0113811
1608 -0.00605243
1609 -0.00732077
1610 -0.00486058
1611 -0.00247161
1612 -0.00879086
1613 -0.00593997
1614 -0.00250992
1615 -0.00846739
1616 0.0109831
1617 0.00381882
1618 0.00797566
1619 -0.00246362
1620 0.00245839
1621 -0.0039153
1622 -0.00395644
1623 -0.00326364
1624 -0.00395243
1625 -0.00442214
1626 -0.00386805
1627 -0.00467624
1628 -0.00408326
1629 -0.00583819
1630 -0.00397704
1631 -0.0100867
1632 -0.00733115
1633 -0.0115275
1634 -0.0123667
1635 -0.00932748
1636 -0.00950525
1637 -0.00903423
1638 -0.00801919
1639 -0.0083519
1640 -0.00897388
1641 0.00119941
1642 -0.00254174
1643 0.00444845
1644 0.00831889
1645 -0.00912293
1646 -0.00440908
1647 -0.00421183
1648 -0.00273026
1649 -0.0029637
1650 -0.00410193
1651 -0.00290941
1652 -0.00726038
1653 -0.00516456
1654 -0.0114367
1655 -0.00755382
1656 -0.0100574
1657 -0.0102055
1658 -0.00560054
1659 -0.00799347
1660 -0.00585913
1661 -0.00756007
1662 -0.00796874
1663 -0.00883647
1664 -0.00917363
1665 -0.00906378
1666 -0.00821842
1667 -0.00896311
1668 -0.00925701
1669 -0.00493523
1670 -0.00683813
1671 -0.0100314
1672 -0.0136501
1673 -0.00661926
1674 -0.00602229
1675 -0.00664166
1676 -0.00395848
1677 -0.00730667
1678 -0.00517137
1679 -0.0102257
1680 -0.00723127
1681 -0.0161733
1682 -0.0133374
1683 -0.00631651
1684 -0.0113079
1685 -0.00159651
1686 -0.00220072
1687 -0.00585588
1688 -0.00307336
1689 -0.00979103
1690 -0.00697301
1691 -0.00959016
1692 -0.00893387
1693 -0.00912872
1694 -0.00822968
1695 -0.0165777
1696 -0.0133409
1697 0.0130685
1698 0.0144493
1699 0.0156168
1700 0.0168678
1701 0.0144576
1702 0.0234519
1703 0.0225284
1704 0.00904517
1705 0.0170975
1706 0.00344158
1707 0.00452201
1708 0.0113498
1709 0.00699417
1710 0.0157249
1711 0.0180721
1712 0.00851109
1713 0.0132203
1714 0.013995
1715 0.00927429
1716 0.0133879
1717 0.0151145
1718 0.00199862
1719 0.00705768
1720 0.000998601
1721 6.14927e-05
1722 0.00681225
1723 0.010407
1724 0.0107088
1725 0.00858565
1726 0.0124103
1727 0.0133144
1728 0.013878
1729 0.00890178
1730 0.0186321
1731 -7.6623e-06
1732 0.00641537
1733 0.00201752
1734 0.00177223
1735 0.00629793
1736 0.00767633
1737 0.00258533
1738 0.00922035
1739 0.00484845
1740 0.0051205
1741 0.0120107
1742 0.0127007
1743 0.0042322
1744 0.0120365
1745 -0.00356443
1746 0.000292792
1747 0.00299582
1748 -0.000882472
1749 0.00414115
1750 0.00764591
1751 0.00640323
1752 0.00725017
1753 0.00725897
1754 0.00216417
1755 0.00644149
1756 -0.00291835
1757 0.00078131
1758 -0.000733733
1759 -0.0017762
1760 4.06053e-05
1761 0.000463555
1762 -0.00121451
1763 0.000209017
1764 0.000108536
1765 -0.00134055
1766 0.00626048
1767 0.00271031
1768 0.0070389
1769 0.00748305
1770 0.00358971
1771 0.00402681
1772 0.000910385
1773 -0.000822293
1774 0.00113746
1775 0.00844425
1776 0.00428383
1777 0.016733
1778 0.0110117
1779 0.00958518
1780 0.0124352
1781 -0.000553285
1782 0.00101092
1783 0.00429463
1784 -0.00221363
1785 0.00701667
1786 0.00388116
1787 0.00210054
1788 0.00153982
1789 0.00589839
1790 0.000160879
1791 0.0115833
1792 0.0061906
1793 0.0100107
1794 0.00877396
1795 0.0124496
1796 0.00857046
1797 0.0120296
1798 0.0110356
1799 0.00508147
1800 0.0056606
1801 0.00552792
1802 0.0135759
1803 0.00925122
1804 0.0157772
1805 0.0185283
1806 0.00623503
1807 0.0112889
1808 0.00807146
1809 0.00355346
1810 0.0188913
1811 0.0114694
1812 0.0116727
1813 0.0144711
1814 0.00729259
1815 0.00590955
1816 0.0141987
1817 0.00993229
1818 0.0115785
1819 0.0153388
1820 0.0066764
1821 0.00957277
1822 0.0107777
1823 0.011656
1824 0.00679696
1825 0.0126537
1826 0.00572382
1827 0.00952383
1828 0.00572226
1829 0.0129839
1830 0.012468
1831 0.00657064
1832 0.0115995
1833 0.00409172
1834 0.00531152
1835 0.0120309
1836 0.00885233
1837 0.0157266
1838 0.0182618
1839 0.011877
1840 0.0134356
1841 0.0121767
1842 0.0104491
1843 0.00895455
1844 0.0122048
1845 0.000410171
1846 0.00714212
1847 -0.00236692
1848 0.000759041
1849 0.000801218
1850 0.0020069
1851 0.00328575
1852 0.0033866
1853 0.00823913
1854 0.017192
1855 0.0125994
1856 0.00885055
1857 0.0140378
1858 -5.58529e-05
1859 0.00369043
1860 0.00292838
1861 0.0017268
1862 0.00820316
1863 0.0074791
1864 0.0141705
1865 0.0115215
1866 0.0215491
1867 0.0173028
1868 0.0115835
1869 0.0161451
1870 0.0015194
1871 0.00586287
1872 -0.000744705
1873 -0.00145888
1874 0.00224304
1875 -0.00200682
1876 0.002773
1877 0.000774967
1878 0.0033093
1879 0.00912522
1880 0.0046565
1881 0.011024
1882 0.0162837
1883 -0.00121406
1884 0.0066121
1885 -0.00109585
1886 -0.00202694
1887 0.00390488
1888 0.00191864
1889 0.00592713
1890 0.00567924
1891 0.0136769
1892 0.0115054
1893 0.0145302
1894 0.020613
1895 0.00485824
1896 0.0107966
1897 0.00248006
1898 0.00153108
1899 0.010076
1900 0.00364394
1901 0.00953401
1902 0.00983198
1903 -0.000780857
1904 0.00371888
1905 -0.00204437
1906 0.00840198
1907 0.00440497
1908 0.0038234
1909 0.00793306
1910 -0.00132397
1911 -0.00209557
1912 0.00706405
1913 0.000190342
1914 0.00831582
1915 0.00721832
1916 0.000628862
1917 0.00394971
1918 0.00645561
1919 0.00479343
1920 0.00913708
1921 0.00994061
1922 0.0054795
1923 0.00648635
1924 0.00650908
1925 0.00450098
1926 0.0109422
1927 0.0109038
1928 0.00237109
1929 0.00965153
1930 -0.00310862
1931 0.00911231
1932 0.00138227
1933 0.0168325
1934 0.0116694
1935 0.00597036
1936 0.00920235
1937 0.00663669
1938 0.00194142
1939 0.0188765
1940 0.0123351
1941 0.0083674
1942 0.0141728
1943 0.00224515
1944 0.000533019
1945 0.0115367
1946 0.00518305
1947 0.0121952
1948 0.0125284
1949 0.0042326
1950 0.00747147
1951 0.00413867
1952 0.00420443
1953 0.00656448
1954 0.00680817
1955 0.0027838
1956 0.00355324
1957 0.00993828
1958 0.016549
1959 0.0119628
1960 0.0138883
1961 0.0196404
1962 0.00196021
1963 0.00744079
1964 0.0100247
1965 0.00519035
1966 0.0127845
1967 0.0166395
1968 0.00334584
1969 0.00897161
1970 0.00544592
1971 0.00332355
1972 0.011517
1973 0.0112744
1974 0.00432336
1975 0.0113348
1976 0.000175516
1977 0.00210312
1978 0.00639845
1979 0.0024362
1980 0.0112515
1981 0.00852402
1982 0.00921349
1983 0.00807673
1984 0.00954397
1985 0.0137583
1986 0.0121839
1987 0.0111644
1988 0.0130189
1989 0.00880032
1990 0.00542364
1991 0.0139902
1992 0.00990753
1993 0.00750525
1994 0.0110655
1995 0.00182416
1996 0.00291983
1997 0.00579191
1998 0.00379163
1999 0.00371489
2000 0.00710104
2001 -0.000636249
2002 0.000875466
2003 0.00520949
2004 0.000657367
2005 0.0108227
2006 0.00802704
2007 0.0100366
2008 0.0120137
2009 0.00313504
2010 0.00924055
2011 0.00549877
2012 0.0207142
2013 0.014702
2014 0.0159801
2015 0.0177285
2016 0.015863
2017 0.0132702
2018 0.0135095
2019 0.0165272
2020 0.00410402
2021 0.0082052
2022 0.00559256
2023 0.00300557
2024 0.00838645
2025 0.00671933
2026 0.00428234
2027 0.00447731
2028 0.00988746
2029 0.00263651
2030 0.0142684
2031 0.0109781
2032 0.00699708
2033 0.0104149
2034 0.00557222
2035 0.00240897
2036 0.000950585
2037 0.0112063
2038 0.0077093
2039 0.0151864
2040 0.0186158
2041 0.0104424
2042 0.0152384
2043 0.00890703
2044 0.0128329
2045 0.00126464
2046 0.0089502
2047 0.000670894
2048 0.00140171
2049 0.00883437
2050 0.00607541
2051 0.00673558
2052 0.0100444
2053 0.0057315
2054 0.00547851
2055 0.0159096
2056 0.0128207
2057 0.00905353
2058 0.0162399
2059 0.000936693
2060 0.00477174
2061 0.00136749
2062 0.00414619
2063 0.0025129
2064 0.0075121
2065 0.00681959
2066 0.00741153
2067 0.0094673
2068 0.00401512
2069 0.00725951
2070 -0.000733073
2071 0.00314018
2072 -0.00327139
2073 -0.00265164
2074 0.0034772
2075 -0.000676573
2076 0.00393158
2077 0.00641626
2078 -0.00238888
2079 0.0027385
2080 0.00206527
2081 0.000931443
2082 0.00514267
2083 0.00855923
2084 0.000809681
2085 0.00493361
2086 0.000684356
2087 0.00972292
2088 0.00466251
2089 0.0106806
2090 0.00615443
2091 0.0144091
2092 0.00787618
2093 0.0110702
2094 0.0093249
2095 0.00264186
2096 0.00355573
2097 0.00342122
2098 -0.000805788
2099 0.0114768
2100 0.00227148
2101 0.00999643
2102 0.00721849
2103 0.00369908
2104 0.00262486
2105 0.00478917
2106 -0.000850942
2107 0.00442585
2108 0.00179131
2109 0.000371008
2110 0.00144123
2111 0.0037209
2112 -0.000148032
ITEM: TIMESTEP
2
ITEM: NUMBER OF ATOMS
832
ITEM: BOX BOUNDS pp pp ff
0.0000000000000000e+00 3.2200000000000003e+01
0.0000000000000000e+00 3.4399999999999999e+01
-6.3250000000000000e+01 6.3250000000000000e+01
ITEM: ATOMS id q
1281 -0.00459125
1282 -0.00688727
1283 -0.00871066
1284 -0.00949733
1285 -0.00840755
1286 -0.0111273
1287 -0.0108437
1288 -0.00611952
1289 -0.00874634
1290 -0.00766184
1291 -0.00784025
1292 -0.00839646
1293 -0.0131385
1294 -0.00337957
1295 -0.00633538
1296 -0.00515308
1297 -0.00283031
1298 -0.00893813
1299 -0.00719205
1300 -0.00924274
1301 -0.0108683
1302 -0.00320394
1303 -0.00885452
1304 0.000573851
1305 -0.00380644
1306 -0.00625564
1307 -0.00594975
1308 -0.002596
1309 -0.00839749
1310 -0.00685979
1311 -0.0113744
1312 -0.0102352
1313 -0.00888206
1314 -0.0118843
1315 -0.00551135
1316 -0.00642097
1317 -0.00735188
1318 -0.00598697
1319 -0.00657765
1320 -0.00704149
1321 -0.00594765
1322 -0.00518167
1323 -0.00838201
1324 -0.0066259
1325 -0.00977481
1326 -0.00931764
1327 -0.00702581
1328 -0.0089235
1329 0.000520426
1330 -0.00250481
1331 0.000300846
1332 0.00327278
1333 -0.0116176
1334 -0.0102858
1335 -0.00892659
1336 -0.00864072
1337 -0.00911285
1338 -0.0081848
1339 -0.00906901
1340 -0.00616132
1341 -0.00799618
1342 -0.00664479
1343 -0.00590314
1344 -0.00878672
1345 -0.00791353
1346 -0.00782251
1347 -0.00799861
1348 -0.00816315
1349 -0.00706258
1350 -0.0109431
1351 -0.00885167
1352 -0.0136203
1353 -0.0110216
1354 -0.00938566
1355 -0.0103691
1356 -0.0060124
1357 -0.00345746
1358 -0.00608101
1359 -0.0131603
1360 -0.0171811
1361 -0.00814735
1362 -0.0103328
1363 -0.00709936
1364 -0.00776646
1365 -0.00579457
1366 -0.00695117
1367 -0.00408142
1368 -0.00511582
1369 -0.00637802
1370 -0.00558554
1371 -0.00865614
1372 -0.00839959
1373 -0.00788438
1374 -0.00864044
1375 -0.00934412
1376 -0.00837641
1377 -0.0126844
1378 -0.0115452
1379 -0.0140226
1380 -0.0154259
1381 -0.00839062
1382 -0.0114112
1383 -0.0155297
1384 -0.00965698
1385 -0.0148845
1386 -0.00883531
1387 -0.0114385
1388 -0.0095124
1389 -0.00828438
1390 -0.00849554
1391 -0.0083803
1392 -0.00470125
1393 -0.00594468
1394 -0.00466873
1395 -0.00373701
1396 -0.0074998
1397 -0.00566472
1398 -0.00834147
1399 -0.00840144
1400 -0.00641651
1401 -0.00748615
1402 -0.00764312
1403 -0.00747224
1404 -0.00915927
1405 -0.0101255
1406 -0.0064247
1407 -0.00983261
1408 -0.00818765
1409 -0.0069888
1410 -0.0150795
1411 -0.00889808
1412 -0.0102154
1413 -0.0149209
1414 -0.0102526
1415 -0.0126936
1416 -0.0140016
1417 -0.00670215
1418 -0.00882703
1419 -0.00711033
1420 -0.00554586
1421 -0.00946064
1422 -0.00701747
1423 -0.0138247
1424 -0.00916001
1425 -0.0120918
1426 -0.0118673
1427 -0.00678757
1428 -0.00693352
1429 -0.00849382
1430 -0.00687
1431 -0.00703529
1432 -0.00813883
1433 -0.00548384
1434 -0.00534063
1435 -0.00942019
1436 -0.00719468
1437 -0.00850372
1438 -0.00957462
1439 -0.00807103
1440 -0.0150364
1441 -0.0151745
1442 -0.00827841
1443 -0.0126427
1444 -0.00851995
1445 -0.00670077
1446 -0.0119423
1447 -0.0098044
1448 -0.0127241
1449 -0.0112256
1450 -0.0204278
1451 -0.017489
1452 -0.0111036
1453 -0.0166215
1454 -0.00792508
1455 -0.0079046
1456 -0.00819974
1457 -0.00864777
1458 -0.00632294
1459 -0.00707711
1460 -0.00869288
1461 -0.00663948
1462 -0.00942229
1463 -0.00550285
1464 -0.00874159
1465 -0.0073832
1466 -0.00657565
1467 -0.0090031
1468 -0.0111529
1469 -0.00978161
1470 -0.00847117
1471 -0.0155987
1472 -0.0115198
1473 -0.011456
1474 -0.0142988
1475 -0.00975961
1476 -0.0106962
1477 -0.0105673
1478 -0.0138258
1479 -0.0085494
1480 -0.0105445
1481 -0.0084771
1482 -0.00834056
1483 -0.00664157
1484 -0.00770384
1485 -0.00831346
1486 -0.00634606
1487 -0.0119175
1488 -0.0102762
1489 -0.00875128
1490 -0.00510316
1491 -0.00573276
1492 -0.00660972
1493 -0.0052271
1494 -0.00714992
1495 -0.0074293
1496 -0.00744525
1497 -0.00943642
1498 -0.0073912
1499 -0.0118605
1500 -0.00591234
1501 -0.00881661
1502 -0.00734776
1503 -0.00697326
1504 -0.00925682
1505 -0.00804614
1506 -0.0109781
1507 -0.00945396
1508 -0.00771331
1509 -0.00981743
1510 -0.00208281
1511 -0.00531089
1512 -0.00750144
1513 -0.00610823
1514 -0.0116473
1515 -0.00973356
1516 -0.00883552
1517 -0.00867584
1518 -0.00793868
1519 -0.00760153
1520 -0.00784773
1521 -0.000996303
1522 -0.00569152
1523 0.00399605
1524 8.92735e-05
1525 -0.00184735
1526 7.47821e-05
1527 -0.00777578
1528 -0.00562267
1529 -0.0098686
1530 -0.00804607
1531 -0.0148488
1532 -0.011179
1533 -0.0137832
1534 -0.0150121
1535 0.00154466
1536 -0.00699593
1537 0.00642738
1538 0.00408396
1539 -0.00515774
1540 -0.00114828
1541 -0.00951598
1542 -0.00935428
1543 -0.0110381
1544 -0.00689948
1545 -0.00882141
1546 -0.00325157
1547 -0.00651681
1548 0.0022508
1549 0.000381598
1550 -0.00142855
1551 0.00443897
1552 -0.0104091
1553 -0.00388347
1554 -0.00916958
1555 -0.00976522
1556 -0.00731857
1557 -0.00886
1558 -0.00985521
1559 -0.0119297
1560 -0.00480933
1561 -0.0114493
1562 0.00515381
1563 0.00175592
1564 0.00217562
1565 0.0078587
1566 -0.00394282
1567 -0.00559324
1568 -0.00565717
1569 -0.00536108
1570 -0.00722337
1571 -0.00417562
1572 -0.00506592
1573 -0.00287588
1574 -0.0031752
1575 -0.00444057
1576 -0.00133778
1577 -0.0117773
1578 -0.00702489
1579 -0.0130034
1580 -0.0138618
1581 -0.00532121
1582 -0.00948179
1583 -0.00151212
1584 -0.00319079
1585 -0.00502387
1586 -0.00357187
1587 -0.00684253
1588 -0.0056997
1589 0.00150827
1590 -0.00209195
1591 0.00104317
1592 0.00257103
1593 0.00324683
1594 -0.00464095
1595 -0.002834
1596 -0.00456571
1597 -0.00518004
1598 -0.00412105
1599 -0.00408498
1600 -0.00359992
1601 -0.00405472
1602 -0.00472112
1603 -0.0046938
1604 -0.00896652
1605 -0.00853871
1606 -0.0110797
1607 -0.0113503
1608 -0.00604809
1609 -0.00730274
1610 -0.00486513
1611 -0.00247041
1612 -0.00878182
1613 -0.00593518
1614 -0.00247267
1615 -0.00843311
1616 0.0110024
1617 0.00386117
1618 0.00797677
1619 -0.00248353
1620 0.00243669
1621 -0.0039233
1622 -0.00396841
1623 -0.00325785
1624 -0.00395016
1625 -0.0044157
1626 -0.00385852
1627 -0.00466555
1628 -0.00407685
1629 -0.00581623
1630 -0.00396518
1631 -0.0100576
1632 -0.00731267
1633 -0.0115099
1634 -0.0123419
1635 -0.00935122
1636 -0.00950847
1637 -0.00903615
1638 -0.00803551
1639 -0.00833704
1640 -0.00896428
1641 0.00121039
1642 -0.00252239
1643 0.00442935
1644 0.0083263
1645 -0.00916732
1646 -0.00442018
1647 -0.00423355
1648 -0.00272877
1649 -0.00296972
1650 -0.00409611
1651 -0.0029049
1652 -0.00725221
1653 -0.00516152
1654 -0.0113809
1655 -0.00753404
1656 -0.0100075
1657 -0.010153
1658 -0.00557015
1659 -0.00795874
1660 -0.00585792
1661 -0.00754134
1662 -0.00797661
1663 -0.00885432
1664 -0.00915954
1665 -0.00906071
1666 -0.0082162
1667 -0.00895031
1668 -0.00928143
1669 -0.00493868
1670 -0.00687841
1671 -0.0100388
1672 -0.0136877
1673 -0.00661539
1674 -0.00602643
1675 -0.00663317
1676 -0.00395484
1677 -0.00729737
1678 -0.00516404
1679 -0.0101887
1680 -0.00721926
1681 -0.0160516
1682 -0.0132683
1683 -0.00627865
1684 -0.0112398
1685 -0.00159981
1686 -0.00218509
1687 -0.0058679
1688 -0.00307561
1689 -0.00979228
1690 -0.00697653
1691 -0.00957968
1692 -0.0089261
1693 -0.00911524
1694 -0.00822293
1695 -0.0165982
1696 -0.0133528
1697 0.0130852
1698 0.0144544
1699 0.0156289
1700 0.01688
1701 0.0144586
1702 0.0234747
1703 0.022539
1704 0.00904521
1705 0.0170969
1706 0.00342867
1707 0.0045095
1708 0.0113185
1709 0.00697187
1710 0.0156932
1711 0.0180376
1712 0.00850577
1713 0.0132012
1714 0.0140044
1715 0.00925121
1716 0.0134053
1717 0.0150941
1718 0.00200903
1719 0.00705079
1720 0.00101185
1721 7.11453e-05
1722 0.00683088
1723 0.0104127
1724 0.0107192
1725 0.00859321
1726 0.0124147
1727 0.0133469
1728 0.0138973
1729 0.0089234
1730 0.0186686
1731 -1.89693e-06
1732 0.00642433
1733 0.00201327
1734 0.00176663
1735 0.00628796
1736 0.00765524
1737 0.00260189
1738 0.00920059
1739 0.00489368
1740 0.00514121
1741 0.0120733
1742 0.0127533
1743 0.0042556
1744 0.0120871
1745 -0.00356604
1746 0.000304303
1747 0.00299895
1748 -0.000877819
1749 0.00413599
1750 0.00765246
1751 0.00640442
1752 0.00727654
1753 0.00727429
1754 0.00219688
1755 0.00646925
1756 -0.00289056
1757 0.000808737
1758 -0.000722514
1759 -0.00176305
1760 6.38816e-05
1761 0.000472343
1762 -0.0011968
1763 0.000231677
1764 0.000136318
1765 -0.00131394
1766 0.00628595
1767 0.00275279
1768 0.00704908
1769 0.00751947
1770 0.00357128
1771 0.0040322
1772 0.000893382
1773 -0.0008378
1774 0.00112975
1775 0.00844091
1776 0.00427682
1777 0.0167527
1778 0.0110156
1779 0.00962278
1780 0.0124683
1781 -0.000515689
1782 0.001049
1783 0.0043095
1784 -0.00217979
1785 0.0070195
1786 0.0038919
1787 0.00209374
1788 0.001551
1789 0.00588638
1790 0.00015839
1791 0.0115754
1792 0.0061903
1793 0.0100055
1794 0.00877527
1795 0.012429
1796 0.00856343
1797 0.0120064
1798 0.0110068
1799 0.00507392
1800 0.00564427
1801 0.00552836
1802 0.0135739
1803 0.00924829
1804 0.0157982
1805 0.0185428
1806 0.0062512
1807 0.0113197
1808 0.00806823
1809 0.00357272
1810 0.0188623
1811 0.0114635
1812 0.0116602
1813 0.0144579
1814 0.0072868
1815 0.00589921
1816 0.0141957
1817 0.00992295
1818 0.0115719
1819 0.0153287
1820 0.00666827
1821 0.00956393
1822 0.0107704
1823 0.0116419
1824 0.00680138
1825 0.0126472
1826 0.00572483
1827 0.0095146
1828 0.00572026
1829 0.012975
1830 0.0124612
1831 0.0065712
1832 0.0116015
1833 0.00409166
1834 0.00531683
1835 0.0120024
1836 0.00883884
1837 0.0156952
1838 0.0182192
1839 0.0118762
1840 0.013419
1841 0.0121841
1842 0.0104528
1843 0.00895347
1844 0.0122076
1845 0.000403838
1846 0.00713802
1847 -0.00239332
1848 0.000749424
1849 0.0007965
1850 0.0019896
1851 0.00328713
1852 0.0033936
1853 0.00823624
1854 0.0171793
1855 0.0125908
1856 0.00883846
1857 0.014022
1858 -5.24011e-05
1859 0.00368502
1860 0.00292325
1861 0.00173062
1862 0.0081805
1863 0.00746007
1864 0.0141602
1865 0.0114972
1866 0.02158
1867 0.0173099
1868 0.0115879
1869 0.0161652
1870 0.00150446
1871 0.00585481
1872 -0.000743961
1873 -0.00146734
1874 0.00224529
1875 -0.00201767
1876 0.00276881
1877 0.00077204
1878 0.0033039
1879 0.0091692
1880 0.0046872
1881 0.0110288
1882 0.0162918
1883 -0.00123613
1884 0.00660143
1885 -0.00111093
1886 -0.0020393
1887 0.00388751
1888 0.00190989
1889 0.00590236
1890 0.00565973
1891 0.0136631
1892 0.0114889
1893 0.0145321
1894 0.0206298
1895 0.00484051