LAMMPS data file via write_data, version 30 Nov 2020, timestep = 0

2112 atoms
5 atom types
640 bonds
2 bond types
320 angles
1 angle types

0 32.2 xlo xhi
0 34.4 ylo yhi
-68 68 zlo zhi

Masses

1 67.06999999999999
2 15.04
3 57.12
4 144.96
5 12.001

Pair Coeffs # lj/cut/coul/long

1 0.61185 4.38
2 0.08604 3.41
3 0.43738 5.04
4 1.12572 5.06
5 0.05497 3.37

Bond Coeffs # harmonic

1 200 2.7076
2 200 3.8213

Angle Coeffs # harmonic

1 200 116.035

Atoms # full

1 1 1 0.4374 8.018755521818427 18.635297018883225 -48.0360311369247 -3 1 0
2 1 2 0.1578 6.138169422128386 18.114956375794332 -46.15886857143655 -3 1 0
3 1 3 0.1848 6.869203034778301 20.710681617546648 -51.031634838547845 -3 1 0
4 2 4 -0.78 17.144082029720185 12.42372652648038 -33.14905703154837 -3 1 0
5 3 1 0.4374 26.71588165516771 6.68683273939835 -50.9721433512443 -3 1 0
6 3 2 0.1578 27.893443429590583 4.980997744338941 -49.23014076865715 -3 1 0
7 3 3 0.1848 22.906578463385138 6.918353183924586 -50.777358425108 -3 1 0
8 4 4 -0.78 28.777497858047184 15.573237811350227 -46.91657577671339 -3 1 0
9 5 1 0.4374 25.65258322285451 12.266119188426327 -47.12282534791512 -3 1 0
10 5 2 0.1578 24.89994813178406 14.459446639887783 -45.724986705369815 -3 1 0
11 5 3 0.1848 25.301965222704215 12.49596159287851 -50.921058249941346 -3 1 0
12 6 4 -0.78 19.431080881137078 16.478842233698625 -37.989254974390306 -3 1 0
13 7 1 0.4374 18.456455205103122 13.464935523966744 -51.55892115018613 -3 1 0
14 7 2 0.1578 17.511518154589496 11.507942921936936 -49.94387573662592 -3 1 0
15 7 3 0.1848 21.169367673141718 15.705642634863969 -50.06839397023433 -3 1 0
16 8 4 -0.78 12.221107611880273 26.36906861007472 -42.38392915625233 -2 1 0
17 9 1 0.4374 16.280062561645234 23.944441791875942 -50.98337471177792 -3 1 0
18 9 2 0.1578 13.679400283358403 24.438945310688656 -51.55181093895334 -3 1 0
19 9 3 0.1848 17.240886490762836 20.26696181301513 -50.58930355890601 -3 1 0
20 10 4 -0.78 12.243364458992295 20.736743437046528 -50.18225674796802 -3 1 0
21 11 1 0.4374 23.910237203636665 20.771203040378833 -51.263646209664046 -3 1 0
22 11 2 0.1578 21.208048593021285 20.754029876701953 -51.433880039534145 -3 1 0
23 11 3 0.1848 25.582244295713775 17.36876124480848 -50.783942340596994 -3 1 0
24 12 4 -0.78 14.257665959407325 27.622799689625374 -48.80282835245156 -3 1 0
25 13 1 0.4374 12.885175476813341 16.398933283301492 -51.16490485235084 -3 1 0
26 13 2 0.1578 10.295929344373079 17.190640082817715 -51.17503252784649 -3 1 0
27 13 3 0.1848 13.485355047597727 12.62739444499284 -51.032191009602535 -3 1 0
28 14 4 -0.78 28.867557694538117 21.058584640019888 -50.5539761450349 -3 1 0
29 15 1 0.4374 31.37727041107771 17.076631460590022 -50.83280267220864 -3 1 0
30 15 2 0.1578 31.996314501664756 18.326960952738435 -48.51233756030537 -3 1 0
31 15 3 0.1848 31.508926613008718 13.258158526006733 -50.76749737106415 -3 1 0
32 16 4 -0.78 13.710939015726327 2.803730515656993 -41.33446013157363 -2 2 0
33 17 1 0.4374 6.253379757013871 26.358020376943724 -28.762577512953555 -2 1 0
34 17 2 0.1578 5.883573210092105 24.79130728921269 -26.585480597661707 -2 1 0
35 17 3 0.1848 7.737306153378611 29.81780358971082 -28.106684030042793 -2 1 0
36 18 4 -0.78 4.020080621061175 11.168307739985448 -40.96833363309903 -2 2 0
37 19 1 0.4374 28.82639584317366 21.558403424763323 -42.74525035909084 -3 1 0
38 19 2 0.1578 28.365671518029014 23.921610317949522 -41.50666889708741 -3 1 0
39 19 3 0.1848 26.68138964019234 20.83167925840237 -45.82309929397249 -3 1 0
40 20 4 -0.78 30.69886621487026 2.238515954617305 -50.038041919418646 -3 2 0
41 21 1 0.4374 1.1874498549658548 22.713113151470477 -50.33934322859926 -2 1 0
42 21 2 0.1578 3.0008605598238876 20.838597352544806 -51.066550142652346 -2 1 0
43 21 3 0.1848 32.147476773392874 22.535675192291354 -46.7291747812972 -3 1 0
44 22 4 -0.78 31.879416223838206 18.386150258651725 -32.4152214491927 -3 2 0
45 23 1 0.4374 15.106981258092942 5.051457661090983 -49.80254531954085 -2 2 0
46 23 2 0.1578 14.6752692728195 4.393380731804369 -47.21185867695677 -2 2 0
47 23 3 0.1848 17.90621409466654 7.571130645775271 -50.44897959158404 -2 2 0
48 24 4 -0.78 18.651836108133732 31.920438418295404 -42.59394760524564 -2 1 0
49 25 1 0.4374 0.7983933281679296 6.754787582786929 -51.05283516071227 -2 2 0
50 25 2 0.1578 0.4992639994801933 9.317892095756939 -51.87266115476987 -2 2 0
51 25 3 0.1848 4.3949944266976395 5.500288347423779 -50.747833689523326 -2 2 0
52 26 4 -0.78 18.466644898703304 5.262629157087038 -44.82012663892372 -3 2 0
53 27 1 0.4374 8.021706433898236 1.778261216868906 -50.734676929749014 -2 2 0
54 27 2 0.1578 8.133491208738368 0.14258321708523217 -48.579877773174225 -2 2 0
55 27 3 0.1848 9.727075205229283 5.176352413162297 -50.351235583945694 -2 2 0
56 28 4 -0.78 25.13336143085996 4.283977369226982 -46.46431485402753 -3 2 0
57 29 1 0.4374 25.775899821793416 5.193860122158017 -22.983234461762965 -2 2 0
58 29 2 0.1578 25.677461371236117 3.0485073152454487 -24.632133781135195 -2 2 0
59 29 3 0.1848 24.863724544106304 4.544431930352101 -19.329672778074457 -2 2 0
60 30 4 -0.78 12.333139085321678 1.1880852056635207 -48.2959457075351 -2 2 0
61 31 1 0.4374 7.079596915324247 33.5987910101321 -22.488669785935457 -2 1 0
62 31 2 0.1578 6.859686362482402 31.98777765193431 -24.653703981652768 -2 1 0
63 31 3 0.1848 7.965264369485908 2.8480285685382367 -23.19647773554 -2 2 0
64 32 4 -0.78 12.649419009122276 8.481671419245458 -47.85063110511435 -2 2 0
65 33 1 0.4374 17.37145002704102 7.210997364575731 -40.849909590274265 -2 1 0
66 33 2 0.1578 17.890129871783298 4.819795277441549 -39.6905038984533 -2 1 0
67 33 3 0.1848 13.741791173925963 7.826133181622285 -41.874369558546384 -2 1 0
68 34 4 -0.78 18.35637094100571 27.68338801245977 -28.796895547287225 -2 1 0
69 35 1 0.4374 4.4732283438851645 6.853019329277048 -43.576454652070375 -2 1 0
70 35 2 0.1578 2.5908562889636526 6.035923517269296 -45.34284295617376 -2 1 0
71 35 3 0.1848 6.982063052881217 9.428595448850533 -44.87047541959724 -2 1 0
72 36 4 -0.78 30.247109152368473 11.117952631546954 -28.37823643037696 -3 1 0
73 37 1 0.4374 14.438430280074206 12.049528829214662 -29.21180029050068 -2 1 0
74 37 2 0.1578 14.301762101124273 14.752866577061408 -29.278016527526066 -2 1 0
75 37 3 0.1848 12.135007091338126 10.193928106534509 -31.631164103906464 -2 1 0
76 38 4 -0.78 20.91298548036657 11.221751148674587 -48.110528509902935 -3 1 0
77 39 1 0.4374 29.28596342369998 15.08314049922698 -42.40581411006179 -2 1 0
78 39 2 0.1578 31.263406115455982 15.673035603475615 -40.652861763941054 -2 1 0
79 39 3 0.1848 26.11765152770018 17.202362276313885 -42.13556888842934 -2 1 0
80 40 4 -0.78 3.5354347468008775 16.804288893818853 -48.727722895014395 -2 1 0
81 41 1 0.4374 26.45821138330279 26.239622398633408 -50.29787647557854 -3 1 0
82 41 2 0.1578 28.004984828093793 24.50939972560098 -51.692480065346196 -3 1 0
83 41 3 0.1848 27.061931889807465 29.951332749809875 -50.976891578460815 -3 1 0
84 42 4 -0.78 26.07290867035478 0.4325599067889812 -40.36634503135174 -3 3 0
85 43 1 0.4374 9.531541081789785 26.827642247925656 -46.374008170546034 -3 1 0
86 43 2 0.1578 10.134049310531362 29.41779132002314 -45.86488207684942 -3 1 0
87 43 3 0.1848 9.618129267608825 25.77612637069221 -50.04676606294264 -3 1 0
88 44 4 -0.78 0.5154999700707814 31.548762761592247 -45.90283614704155 -2 1 0
89 45 1 0.4374 17.01806747849069 28.058580130236585 -44.97873702335928 -2 1 0
90 45 2 0.1578 16.45808091842881 27.31876532199889 -42.43508082356995 -2 1 0
91 45 3 0.1848 20.72342523016234 28.245235581608753 -45.89406066266771 -2 1 0
92 46 4 -0.78 8.342507394827955 31.712829406308913 -41.268941014412285 -2 1 0
93 47 1 0.4374 14.575878224067747 31.74351363775656 -51.00350550440655 -2 1 0
94 47 2 0.1578 15.040243022720917 34.30541108176961 -51.7465698232333 -2 1 0
95 47 3 0.1848 10.922144856371741 30.81390812481582 -50.38028823891289 -2 1 0
96 48 4 -0.78 22.098305303514284 24.612816078568056 -49.385939029321264 -2 1 0
97 49 1 0.4374 3.143047324961754 30.404749585465566 -42.24142252429404 -3 1 0
98 49 2 0.1578 4.711915536487711 32.066967090275156 -43.69289875961899 -3 1 0
99 49 3 0.1848 4.907113459878559 28.384566336040205 -39.51942619794454 -3 1 0
100 50 4 -0.78 16.345065204373785 15.283122535862024 -47.84403182550915 -3 2 0
101 51 1 0.4374 9.803483705270343 21.586154838740853 -39.01686481625755 -2 1 0
102 51 2 0.1578 11.692421797547118 23.327734980901905 -39.871212083621 -2 1 0
103 51 3 0.1848 11.068396950110884 18.163877656644868 -37.88093037184118 -2 1 0
104 52 4 -0.78 3.8074022286673923 29.622438743239847 -23.541426885263323 -2 1 0
105 53 1 0.4374 15.003284661928683 14.466118833221222 -36.92249255607989 -2 2 0
106 53 2 0.1578 15.169866323629881 15.948515144319316 -39.18210524132361 -2 2 0
107 53 3 0.1848 11.62977001216869 12.800198455938014 -36.254329480916546 -2 2 0
108 54 4 -0.78 7.478034765874514 4.858978081389789 -39.926619040629774 -2 2 0
109 55 1 0.4374 20.79546193368768 23.072791883161617 -43.38831494695304 -2 1 0
110 55 2 0.1578 22.21309017732013 23.568050209463827 -45.64134559786664 -2 1 0
111 55 3 0.1848 22.469854924220424 20.79112938029881 -40.82067828515786 -2 1 0
112 56 4 -0.78 18.79010109371874 32.54865987787751 -49.1507525682199 -2 1 0
113 57 1 0.4374 19.90475883169001 8.955205995154257 -35.40907558376573 -3 2 0
114 57 2 0.1578 22.605839529753855 8.947166229050744 -35.22146911962745 -3 2 0
115 57 3 0.1848 18.41852643631019 11.19959023922589 -38.12130461588696 -3 2 0
116 58 4 -0.78 21.903895256221848 18.91067419803873 -46.510528168368666 -3 2 0
117 59 1 0.4374 25.087338572778354 3.9138178385722364 -36.94885648680941 -3 2 0
118 59 2 0.1578 22.92620046644742 4.652206180717607 -35.494427904279874 -3 2 0
119 59 3 0.1848 27.624835316083644 6.670415546911491 -37.700263861669264 -3 2 0
120 60 4 -0.78 26.10869117019474 31.395505317794548 -46.33184327115801 -3 1 0
121 61 1 0.4374 24.076065136966726 11.70553460599547 -20.45288472500694 -2 2 0
122 61 2 0.1578 25.978766948238004 12.30149201210783 -18.62103911268277 -2 2 0
123 61 3 0.1848 24.07343046275847 13.838839043697574 -23.623269390092336 -2 2 0
124 62 4 -0.78 8.951436704726943 14.213709436120155 -48.18595211290215 -2 2 0
125 63 1 0.4374 5.613142670994686 12.30343636379469 -51.17620509464669 -2 2 0
126 63 2 0.1578 6.2278047976463045 14.91053953310451 -51.5715546809564 -2 2 0
127 63 3 0.1848 8.575831830821423 9.90948326193809 -50.86994510910624 -2 2 0
128 64 4 -0.78 29.62763914447248 9.310012795328475 -48.372175189129976 -2 2 0
129 65 1 0.4374 29.67802369804659 12.075937752976118 2.5494724019526247 -4 2 0
130 65 2 0.1578 30.065533360380368 14.536372806331643 3.6111660347450854 -4 2 0
131 65 3 0.1848 27.674174729464905 9.623230701459992 4.687497453437654 -4 2 0
132 66 4 -0.78 22.060626703950902 6.0414759620115595 -31.70488975984062 -3 2 0
133 67 1 0.4374 11.08378048300573 2.849419216001416 -37.27536198112989 -2 1 0
134 67 2 0.1578 13.6992541296176 2.5660213481449 -36.63498630019364 -2 1 0
135 67 3 0.1848 8.82239423477626 34.283563062055315 -36.443398519860466 -2 0 0
136 68 4 -0.78 23.440675504341197 8.909519845589543 -24.728890221225075 -3 1 0
137 69 1 0.4374 31.88193338189493 32.26583746756779 -51.3667300090202 -2 0 0
138 69 2 0.1578 30.30401789432564 31.86245972863313 -49.2037305004245 -2 0 0
139 69 3 0.1848 3.084154998384777 33.866928366810434 -50.68575299376658 -1 0 0
140 70 4 -0.78 7.708242668230574 19.20018995191281 -42.48245362668528 -2 1 0
141 71 1 0.4374 17.994835928342688 18.79769132356556 -44.39203257758985 -2 1 0
142 71 2 0.1578 16.458408900970127 19.235970475322535 -46.57798800610499 -2 1 0
143 71 3 0.1848 17.799661051021527 15.293740747541417 -42.87989143968347 -2 1 0
144 72 4 -0.78 20.168360884011435 26.33471896803759 -39.98081209709635 -2 1 0
145 73 1 0.4374 18.954771832504235 9.007134781555031 -29.195923588435967 -2 1 0
146 73 2 0.1578 19.73135541240772 11.10865936176981 -30.716321609391418 -2 1 0
147 73 3 0.1848 16.7233742588225 6.4259241205479105 -30.916548498728716 -2 1 0
148 74 4 -0.78 32.17838755030197 9.520474835925699 -33.8847049651826 -3 2 0
149 75 1 0.4374 10.28291482007665 21.05547810791458 -32.274115678755265 -2 1 0
150 75 2 0.1578 11.56927692231907 21.644516518206498 -29.96556547243458 -2 1 0
151 75 3 0.1848 7.704624106183529 23.615478685742445 -33.45781653905143 -2 1 0
152 76 4 -0.78 2.2871484990805295 23.77290994092302 -27.517783681315038 -2 1 0
153 77 1 0.4374 20.967179627873715 15.125127108121312 -33.023505887725 -2 1 0
154 77 2 0.1578 21.84528818935216 14.743150642959952 -30.490895160400957 -2 1 0
155 77 3 0.1848 17.96372859584883 17.45345876861513 -33.42411451043902 -2 1 0
156 78 4 -0.78 0.061305914694207125 5.0851130370267414 -42.42120429793734 -1 2 0
157 79 1 0.4374 18.766404137294547 28.252422935711415 -50.81463835195571 -2 1 0
158 79 2 0.1578 18.135360258913135 26.811816307675812 -48.610656970424856 -2 1 0
159 79 3 0.1848 22.424548091772888 29.30897964977308 -51.13713549797403 -2 1 0
160 80 4 -0.78 0.2248502458118494 25.994799314547333 -42.9724021945188 -2 1 0
161 81 1 0.4374 24.18409596809977 25.705284430755178 -37.77224096220756 -3 1 0
162 81 2 0.1578 23.579525758193196 24.91986339540267 -35.25257701207009 -3 1 0
163 81 3 0.1848 27.809938270424393 26.747705903929894 -38.3796607191837 -3 1 0
164 82 4 -0.78 14.96474097045677 20.391197516737815 -40.74746881721112 -3 2 0
165 83 1 0.4374 10.140872529327334 7.422375335208913 -36.49149383413003 -2 2 0
166 83 2 0.1578 8.232087050641459 5.788809241082664 -35.48199020734427 -2 2 0
167 83 3 0.1848 9.295886353059178 9.14870621646929 -39.79423720022487 -2 2 0
168 84 4 -0.78 10.853553973556382 4.615971524810228 -32.83797505714913 -2 2 0
169 85 1 0.4374 27.02545940160858 0.4395720804719221 -27.2868541359571 -3 2 0
170 85 2 0.1578 26.556833506246242 32.17446366193081 -27.380045598629344 -3 1 0
171 85 3 0.1848 26.164625462250676 2.4054824828455916 -30.448577544116223 -3 2 0
172 86 4 -0.78 3.644680400401655 1.7929660670552607 -19.03454681409385 -2 2 0
173 87 1 0.4374 25.80397265001687 0.28702317814947387 -49.87330379904399 -2 2 0
174 87 2 0.1578 27.205118213840553 1.1500925787435679 -47.72318750429307 -2 2 0
175 87 3 0.1848 22.311185185460047 1.775285906779863 -50.30671292217813 -2 2 0
176 88 4 -0.78 24.86332951025795 25.853604566778 -42.62728660445086 -2 1 0
177 89 1 0.4374 31.717101939838546 4.922638213212682 -31.591940081570375 -3 2 0
178 89 2 0.1578 29.784866934531504 3.552539700475317 -30.28030152178348 -3 2 0
179 89 3 0.1848 2.337781393317038 6.328182792641014 -29.43079558242505 -2 2 0
180 90 4 -0.78 11.570064190033344 15.387440997914885 -26.55538859963424 -3 2 0
181 91 1 0.4374 31.444331270798543 0.4653878336689075 -40.48805467798391 -3 2 0
182 91 2 0.1578 29.924801103449255 2.6004138984367495 -39.80703372831444 -3 2 0
183 91 3 0.1848 3.0001791971269696 0.8167555837086818 -39.87774266783396 -2 2 0
184 92 4 -0.78 27.462627058194123 34.23016617309914 -22.81167523071384 -3 1 0
185 93 1 0.4374 12.515393064535347 0.5136841774122419 -31.593557085517183 -2 3 0
186 93 2 0.1578 14.5194607992103 1.6610222606682339 -33.00721390301411 -2 3 0
187 93 3 0.1848 13.421370886928239 31.734148538932907 -29.67728701060111 -2 2 0
188 94 4 -0.78 13.399001369726736 33.91024730283361 -13.684532008217873 -2 2 0
189 95 1 0.4374 13.44003967422905 12.575200320613646 -45.572842625311004 -2 2 0
190 95 2 0.1578 11.01571878504704 11.395746444702056 -45.322533734414336 -2 2 0
191 95 3 0.1848 16.46598447686451 10.364454566444001 -44.82545052435803 -2 2 0
192 96 4 -0.78 22.194035501873632 0.309395509672821 -35.25806793999143 -2 3 0
193 97 1 0.4374 19.282481666078397 4.064917582934013 -13.821326550780503 -3 2 0
194 97 2 0.1578 20.52705195980077 1.6665872854717783 -13.647676531018215 -3 2 0
195 97 3 0.1848 15.971151756997886 4.102028181875744 -15.728169682265486 -3 2 0
196 98 4 -0.78 12.14577963226571 16.732006398938957 -33.26937165854713 -3 1 0
197 99 1 0.4374 1.4740081171425556 1.6247221613602274 -45.536668558652046 -2 1 0
198 99 2 0.1578 1.978679328679795 2.9335892379637696 -47.85254241188463 -2 1 0
199 99 3 0.1848 30.001194407014086 1.391533810224489 -44.507884648578134 -3 1 0
200 100 4 -0.78 14.81560484221766 7.4531342841591055 -36.387214559514234 -2 1 0
201 101 1 0.4374 3.2102276672183216 11.636198837142897 -29.828261134582405 -2 2 0
202 101 2 0.1578 1.841225469496867 11.997325607880672 -27.520336049538518 -2 2 0
203 101 3 0.1848 3.441832402602473 14.674650633613943 -32.13401559185994 -2 2 0
204 102 4 -0.78 11.903858489558695 12.381563335436558 -21.13197149099397 -2 1 0
205 103 1 0.4374 22.721894867340893 8.133223270706244 -43.952311038593535 -2 1 0
206 103 2 0.1578 21.86800591066726 6.6815861897148485 -46.072386790764995 -2 1 0
207 103 3 0.1848 20.78739319791815 11.349255545152946 -43.23316335446608 -2 1 0
208 104 4 -0.78 15.81003000216941 23.431405236360565 -45.81538483768271 -3 1 0
209 105 1 0.4374 31.652686082607403 25.445107840243647 0.18858646941074192 -3 2 0
210 105 2 0.1578 31.410913155580076 23.765770271806243 -1.9215009564596675 -3 2 0
211 105 3 0.1848 29.06988421088049 28.25331386403601 0.4017697461125553 -3 2 0
212 106 4 -0.78 22.712789761836948 33.90708239202081 -26.6647867779886 -3 1 0
213 107 1 0.4374 28.322717730257917 5.559877635184088 -15.171940812510156 -4 2 0
214 107 2 0.1578 26.30754424880857 6.799441308515726 -16.488624336209675 -4 2 0
215 107 3 0.1848 30.86680801910013 3.7191703429839897 -17.349493327788355 -4 2 0
216 108 4 -0.78 13.70106380808103 32.19070490549153 -35.92474454241445 -2 1 0
217 109 1 0.4374 2.5059701379502064 27.404837124768857 -47.33216260567778 -2 1 0
218 109 2 0.1578 4.057250079252682 27.876501854668497 -45.163715998938244 -2 1 0
219 109 3 0.1848 4.32297889012827 27.236093365027592 -50.6895929367773 -2 1 0
220 110 4 -0.78 31.124428239162885 30.703324217948175 -38.63402103900815 -3 1 0
221 111 1 0.4374 32.069359459647 30.69279222514124 -33.41321765777853 -3 1 0
222 111 2 0.1578 0.6734747965027026 28.41343438718521 -34.63347342403045 -2 1 0
223 111 3 0.1848 1.9139457119126737 33.82500228128771 -34.195049424896126 -2 1 0
224 112 4 -0.78 26.90744088675624 10.986307138325998 -42.545153113810734 -2 2 0
225 113 1 0.4374 29.35606089161754 29.151335159899457 -43.121413570364396 -3 2 0
226 113 2 0.1578 27.63959321077561 31.135762843325598 -42.45292031696481 -3 2 0
227 113 3 0.1848 28.47061162821337 27.15285636005988 -46.25580278978264 -3 2 0
228 114 4 -0.78 4.2052957608757415 29.121221725294244 -31.995714328835728 -2 2 0
229 115 1 0.4374 12.691795473442427 20.142105359070143 -25.816074480006368 -3 2 0
230 115 2 0.1578 10.180928631445546 19.264982748401845 -25.308825637955938 -3 2 0
231 115 3 0.1848 13.092531784946303 23.916466153756094 -26.25873088216328 -3 2 0
232 116 4 -0.78 24.437832232067027 29.680318020431486 -18.19959060740581 -3 1 0
233 117 1 0.4374 4.182320425086996 17.67357648869642 -40.094624469263096 -1 1 0
234 117 2 0.1578 4.421503731944809 17.089047423723354 -42.72753443362881 -1 1 0
235 117 3 0.1848 2.5743849223292945 14.976339216716035 -37.917059726777964 -1 1 0
236 118 4 -0.78 31.42028951124338 34.072197465531666 -29.5716509007194 -2 1 0
237 119 1 0.4374 29.17122989502257 11.257333996497586 -37.03053009089396 -3 1 0
238 119 2 0.1578 26.510414427521958 10.926160036075597 -37.40667184138319 -3 1 0
239 119 3 0.1848 31.453621571272734 9.408358826373679 -39.4747708211151 -3 1 0
240 120 4 -0.78 5.443686739549124 23.996475189311916 -47.271408364183195 -1 1 0
241 121 1 0.4374 21.69652231550927 1.0984948331721076 -45.117998564127504 -3 2 0
242 121 2 0.1578 19.511860400383263 0.9248313620895942 -46.70802720400704 -3 2 0
243 121 3 0.1848 21.16574800397474 2.7496244429901378 -41.71294594600543 -3 2 0
244 122 4 -0.78 22.162558258202093 7.509874963877266 -39.37712572832683 -3 2 0
245 123 1 0.4374 31.65311717433359 32.89669945426261 -24.774119877330058 -3 1 0
246 123 2 0.1578 31.25267996004115 0.9205427454790809 -25.912421900985823 -3 2 0
247 123 3 0.1848 32.143922396727504 32.88389672240197 -20.98449192542528 -3 1 0
248 124 4 -0.78 4.372212615399828 22.220293966650658 -37.65502926478584 -2 2 0
249 125 1 0.4374 10.573793675338253 28.248123198766933 -37.99055838192924 -2 2 0
250 125 2 0.1578 9.247432823461525 26.197236035247396 -39.15920139687547 -2 2 0
251 125 3 0.1848 9.451088823134274 29.175328967761214 -34.45754876297607 -2 2 0
252 126 4 -0.78 1.3475887062890177 21.0663517357072 -14.28851362608877 -3 2 0
253 127 1 0.4374 11.790781965564136 20.914353458615256 -45.36967138698864 -2 2 0
254 127 2 0.1578 12.405364626785769 22.657890818959338 -43.391423832864255 -2 2 0
255 127 3 0.1848 11.932319655505909 17.20956081778353 -44.44402984669853 -2 2 0
256 128 4 -0.78 27.48942031646169 28.866366726299965 -11.003663752470723 -3 2 0
257 129 1 0.4374 23.52895135567349 31.720830429268563 -22.118303572421944 -4 1 0
258 129 2 0.1578 24.12501561413654 30.823589913043765 -24.6024059487393 -4 1 0
259 129 3 0.1848 22.54921311070535 1.0050706102201554 -21.855966096924135 -4 2 0
260 130 4 -0.78 7.12643165196479 21.38748369418167 -28.81986351963339 -3 1 0
261 131 1 0.4374 4.242948954575532 33.92460516601221 -29.447045616048342 -2 1 0
262 131 2 0.1578 2.808596712740637 1.7974404982770817 -29.118486703871195 -2 2 0
263 131 3 0.1848 7.691025762614614 34.333220611833106 -31.04270643007138 -2 1 0
264 132 4 -0.78 25.011648985341676 10.333833325048284 -14.81417733907985 -2 1 0
265 133 1 0.4374 30.10531863094747 3.3539750421960366 -5.126050810630109 -3 1 0
266 133 2 0.1578 29.914093990286087 2.816283993808345 -7.77282606235587 -3 1 0
267 133 3 0.1848 29.556868006774863 6.996854288019007 -4.110685652925635 -3 1 0
268 134 4 -0.78 25.78097969850548 21.84472069057837 -9.842118651026686 -2 1 0
269 135 1 0.4374 6.285677475198473 17.890735051019423 13.122582283107675 -2 2 0
270 135 2 0.1578 7.750596652954441 20.11004036026567 13.632281711229506 -2 2 0
271 135 3 0.1848 4.7179583091311 17.678155237074858 9.644163083359045 -2 2 0
272 136 4 -0.78 19.71853669110813 4.633914380274051 -20.067605559183825 -2 1 0
273 137 1 0.4374 31.694476942267237 12.19130029614211 -17.978608282992983 -3 1 0
274 137 2 0.1578 29.296971918660823 11.732041327316134 -16.807220805598185 -3 1 0
275 137 3 0.1848 1.4173272059376785 9.09736006169107 -19.13295414980107 -2 1 0
276 138 4 -0.78 29.346498182172503 29.236180485474286 -26.328088923111824 -3 1 0
277 139 1 0.4374 23.724613411342652 29.940384093866204 -41.459757074261475 -3 1 0
278 139 2 0.1578 24.00696425947313 32.223541364329066 -42.887541594762574 -3 1 0
279 139 3 0.1848 22.708901803345945 30.36527874599583 -37.80050467055311 -3 1 0
280 140 4 -0.78 7.058770908814563 16.49523474912581 -35.41905071076111 -2 1 0
281 141 1 0.4374 0.11347338846944038 17.159490468004417 -19.81876385390854 -2 1 0
282 141 2 0.1578 1.3238214436326392 19.021188286880832 -18.269494162415803 -2 1 0
283 141 3 0.1848 2.232637186651469 15.688446942830202 -22.637896598911617 -2 1 0
284 142 4 -0.78 20.938871623196405 12.554238282948392 1.3221034741166722 -2 2 0
285 143 1 0.4374 0.6224171864417855 19.068049155631826 2.4722507988739535 -1 2 0
286 143 2 0.1578 30.801202880207907 20.28580004553473 1.144518424317811 -2 2 0
287 143 3 0.1848 1.547565555079869 20.570180577031618 5.861946269034155 -1 2 0
288 144 4 -0.78 9.652133294272826 22.821156577955986 -23.152639583145636 -2 0 0
289 145 1 0.4374 16.04100444814595 8.73394855350954 -1.9490689792300127 -3 3 0
290 145 2 0.1578 14.87059371673654 7.602261021568463 -4.112519882361234 -3 3 0
291 145 3 0.1848 17.822707466499583 12.059956690957259 -2.5536662983535985 -3 3 0
292 146 4 -0.78 29.040547517834707 16.143721902533773 -37.05690163995329 -3 2 0
293 147 1 0.4374 10.418193621305452 10.264068662876797 -24.959236879562155 -2 2 0
294 147 2 0.1578 8.236223137825109 11.798079171146494 -24.493496253115246 -2 2 0
295 147 3 0.1848 10.585031698220996 6.960203767722665 -23.046392008490987 -2 2 0
296 148 4 -0.78 30.94620467614398 27.004831217376438 -50.69735320474596 -3 1 0
297 149 1 0.4374 4.34332806089977 19.87977931351628 -33.38600849948808 -2 1 0
298 149 2 0.1578 3.218083802080945 18.19244004972246 -35.17983383331782 -2 1 0
299 149 3 0.1848 2.566350272713918 23.22578437287909 -32.887075865605475 -2 1 0
300 150 4 -0.78 12.442401257669108 24.25970695664426 -35.806350380252475 -1 1 0
301 151 1 0.4374 21.53518893478738 1.044670621251894 -31.054763093943404 -2 1 0
302 151 2 0.1578 20.590243438362826 2.818218429866044 -29.24018216725867 -2 1 0
303 151 3 0.1848 19.735436397972414 32.07699975412152 -31.203145799046414 -2 0 0
304 152 4 -0.78 3.207774835064367 9.3886896715029 -47.870998136428376 -1 2 0
305 153 1 0.4374 5.6854359089197795 13.241863993135683 7.206428203321283 -2 2 0
306 153 2 0.1578 3.642678659990809 11.87108944661697 6.07540312578943 -2 2 0
307 153 3 0.1848 8.736640185304621 11.174742788636452 8.216129188930166 -2 2 0
308 154 4 -0.78 7.077277000406124 14.882226266442368 -11.626952025778381 -2 2 0
309 155 1 0.4374 31.39598245836709 20.888359239591875 -37.11141182098583 -3 1 0
310 155 2 0.1578 30.846958602509556 19.262210389164473 -39.20552511386694 -3 1 0
311 155 3 0.1848 32.02650032300977 24.560575605769106 -37.9597088635264 -3 1 0
312 156 4 -0.78 24.73419415982163 19.637286449646393 -25.874713475326786 -2 2 0
313 157 1 0.4374 30.747677825183285 13.176640754290569 -4.204707684464266 -3 2 0
314 157 2 0.1578 28.73612399931678 11.799494601831618 -3.026481288099265 -3 2 0
315 157 3 0.1848 1.1553750606903666 14.679622904280475 -1.850287697388857 -2 2 0
316 158 4 -0.78 22.628093170267025 19.59540276966677 -32.60619145780743 -2 2 0
317 159 1 0.4374 28.51846820134757 9.146098999144947 -24.155018828547252 -2 2 0
318 159 2 0.1578 27.13507455371471 10.685538699941645 -25.900712153189122 -2 2 0
319 159 3 0.1848 32.17449880911578 10.10984200468391 -23.600967111096217 -2 2 0
320 160 4 -0.78 18.35336448750351 32.35806591600994 -21.267596113225483 -1 1 0
321 161 1 0.4374 17.377201120497357 15.031616933822685 3.86323519445897 -2 1 0
322 161 2 0.1578 17.521153966169486 12.332552220479482 4.022687429100173 -2 1 0
323 161 3 0.1848 16.260529762481152 16.842147956097836 7.037720378830153 -2 1 0
324 162 4 -0.78 5.663455565514949 8.962558873123779 -25.836563284088882 -2 2 0
325 163 1 0.4374 28.148301852311715 21.338666792276516 -32.961134130186096 -2 1 0
326 163 2 0.1578 25.858646111658977 22.45625150867662 -33.87741943085567 -2 1 0
327 163 3 0.1848 28.73646995862254 21.57003041098503 -29.19246555284674 -2 1 0
328 164 4 -0.78 6.026811500054245 3.158010396290111 -46.77931699352949 -2 2 0
329 165 1 0.4374 16.879790759174472 31.74795949395103 -10.793764915596478 -3 1 0
330 165 2 0.1578 14.770174986590115 30.20630606932273 -11.503640800349823 -3 1 0
331 165 3 0.1848 20.195078754287028 29.919185976153177 -10.277251003341947 -3 1 0
332 166 4 -0.78 4.772632522844765 3.606286843551767 -33.29910899261963 -2 2 0
333 167 1 0.4374 15.586545791579816 25.20227777071213 -39.57001331911594 -3 1 0
334 167 2 0.1578 16.987594362950727 24.313704919042838 -41.70977941571027 -3 1 0
335 167 3 0.1848 15.991897468747641 28.905767645260944 -38.72019777607617 -3 1 0
336 168 4 -0.78 0.4758267940676905 18.405197865860224 -43.16775703293526 -1 1 0
337 169 1 0.4374 3.30967134996984 24.074280515463073 -17.98250316252469 -2 1 0
338 169 2 0.1578 1.0032650973896637 22.660561942112725 -18.096466991133205 -2 1 0
339 169 3 0.1848 5.065496955805209 24.69110575697657 -21.320007732452172 -2 1 0
340 170 4 -0.78 22.160932743614847 26.195766802527917 -24.35309650647356 -2 1 0
341 171 1 0.4374 15.041417572423903 33.41772483851323 -44.93256333309505 -2 1 0
342 171 2 0.1578 15.905825434042235 1.5836289151233838 -44.92681169048664 -2 2 0
343 171 3 0.1848 13.629503982565915 32.116100846504416 -41.628836847587316 -2 1 0
344 172 4 -0.78 28.61079982010713 23.052691814101617 3.371004805211579 -3 2 0
345 173 1 0.4374 19.16321186506092 22.57332818930374 13.379449907490223 -2 3 0
346 173 2 0.1578 21.077636449968985 21.448121898408164 14.928639073607949 -2 3 0
347 173 3 0.1848 17.889416810953033 20.442440262301872 10.474437602309157 -2 3 0
348 174 4 -0.78 7.1435742084189044 10.448409381591414 -34.82956778908069 -2 2 0
349 175 1 0.4374 30.654028994714672 25.823627326353776 -6.763196624551818 -2 2 0
350 175 2 0.1578 0.39169162043085554 27.260198708720473 -7.993165718655058 -1 2 0
351 175 3 0.1848 27.194333949545573 27.44094428501567 -6.632315992812983 -2 2 0
352 176 4 -0.78 17.484675030728464 21.14285259561941 -24.440877891474727 -2 1 0
353 177 1 0.4374 3.660507868051667 22.14481142510135 -42.68097569063823 -2 1 0
354 177 2 0.1578 3.682682906456536 20.590940369838716 -44.89820160970947 -2 1 0
355 177 3 0.1848 6.882601462249085 24.06268905037802 -41.944638828139354 -2 1 0
356 178 4 -0.78 10.105514864479556 16.375786092325608 10.556205864049273 -3 2 0
357 179 1 0.4374 15.355975035713897 30.222957583540033 3.804211894814225 -2 2 0
358 179 2 0.1578 14.824548854230763 32.23766451978012 5.533269422799389 -2 2 0
359 179 3 0.1848 13.095308843451699 27.152758980267325 4.060341927522857 -2 2 0
360 180 4 -0.78 28.679569578860523 5.08028308385205 -26.631049062604006 -3 2 0
361 181 1 0.4374 2.32285352731341 14.981800620804373 -11.359419019221669 -2 3 0
362 181 2 0.1578 2.747893554298742 17.01242367409042 -13.099249112362074 -2 3 0
363 181 3 0.1848 3.0887549322965873 11.471071330504376 -12.659614611704253 -2 3 0
364 182 4 -0.78 19.204363897907722 13.312703610853122 -27.460496204092795 -3 2 0
365 183 1 0.4374 30.885540843495416 6.09069689116041 1.4848830344493011 -3 3 0
366 183 2 0.1578 28.35798254450936 6.39973603922337 0.5645343975009718 -3 3 0
367 183 3 0.1848 0.7760743898607461 3.3898068503250873 -0.22894197673042863 -2 3 0
368 184 4 -0.78 6.019802408422215 30.97618785331126 -47.50707498161705 -1 1 0
369 185 1 0.4374 15.803889828660473 26.622627781296657 -32.4128260529355 -3 2 0
370 185 2 0.1578 13.43640775867223 27.57749869722177 -33.31523834561867 -3 2 0
371 185 3 0.1848 18.871924865749314 27.47820826704113 -34.52409977602876 -3 2 0
372 186 4 -0.78 28.64151849974537 15.924803205125624 -8.087541566035759 -3 2 0
373 187 1 0.4374 24.831332761857368 21.33919555473315 -0.2122055041474313 -2 2 0