
# trial numbers:
# 0 = conp/v0
# 1 = conp/v1
# 2 = conp/v2
# 3 = conp/v3
# 4 = conp/v4
# 5 = conp/v4 etypes
# 6 = conp/v4 etypes noslab zneutr
# 7 = conp/v4 etypes ffield

units               real
dimension           3
newton              off
#processors          * * 2
if "$n <= 5" then "boundary p p f" else "boundary p p p"
boundary p p p
atom_style          full

##force field
pair_style          lj/cut/coul/long 4.0
bond_style          harmonic
angle_style         harmonic
kspace_style        pppm 1.0e-6
if "$n <= 5" then "kspace_modify slab 3.0"
#you can try forcing kspace mesh same xy resolution
#to eliminate spurious differences
#but fix/conp's own internal k meshing isn't controlled :(
#resolutions determined by first running:
#if "$n <= 5" then "kspace_modify mesh 30 27 324 slab 3.0" #elif "$n == 6" "kspace_modify mesh 30 27 144" #elif "$n == 7" "kspace_modify mesh 30 27 250"

##atom definition
read_data           data
Reading data file ...
  orthogonal box = (0.0000000 0.0000000 -44.200000) to (9.8380000 8.5200000 44.200000)
  1 by 1 by 1 MPI processor grid
  reading atoms ...
  432 atoms
  scanning bonds ...
  2 = max bonds/atom
  scanning angles ...
  1 = max angles/atom
  reading bonds ...
  160 bonds
  reading angles ...
  80 angles
Finding 1-2 1-3 1-4 neighbors ...
  special bond factors lj:    0.0      0.0      0.0     
  special bond factors coul:  0.0      0.0      0.0     
     2 = max # of 1-2 neighbors
     1 = max # of 1-3 neighbors
     1 = max # of 1-4 neighbors
     2 = max # of special neighbors
  special bonds CPU = 0.000 seconds
  read_data CPU = 0.005 seconds
pair_coeff   1   1         0.09935850       3.40000000  # CAB CAB
pair_coeff   1   2         0.19419428       3.50000000  # CAB CAC
pair_coeff   1   3         0.07390356       3.38500000  # CAB CG
pair_coeff   1   4         0.09935850       3.35000000  # CAB NAA
pair_coeff   2   2         0.37954900       3.60000000  # CAC CAC
pair_coeff   2   3         0.14444310       3.48500000  # CAC CG
pair_coeff   2   4         0.19419428       3.45000000  # CAC NAA
pair_coeff   3   3         0.05497000       3.37000000  # CG CG
pair_coeff   3   4         0.07390356       3.33500000  # CG NAA
pair_coeff   4   4         0.09935850       3.30000000  # NAA NAA

##replicate cell if noslab zneutr
if "$n == 6" then "replicate 1 1 2" "change_box all z final $(-lz/2) $(lz/2) remap units box" "region pos block EDGE EDGE EDGE EDGE 0 EDGE" "group pos region pos" "variable newz atom lz/2-z" "set group pos z v_newz" "variable molmax   equal 82" "variable molleft  equal 81" "variable molright equal 82" "set mol $(v_molmax+v_molright) mol ${molright}" "set mol $(v_molmax+v_molleft)  mol ${molleft}"

##setting
neighbor            2 bin
group sol type 1 2 4
240 atoms in group sol
variable q atom q
group ele           type 3
192 atoms in group ele
group eleleft       molecule 81
96 atoms in group eleleft
group eleright      molecule 82
96 atoms in group eleright
if "$n != 6" then "group eleall        union eleleft eleright" "compute qleft       eleleft  reduce sum v_q" "compute qright      eleright reduce sum v_q" "compute qall        eleall   reduce sum v_q" "compute tempsl      sol      temp" elif "$n == 6" "group solpos  intersect sol   pos" "group solneg  subtract  sol   solpos" "group elepos  intersect ele   pos" "group eleneg  subtract  ele   elepos" "group eleleftpos  intersect eleleft   pos" "group elerightpos intersect eleright  pos" "group eleleftneg  subtract  eleleft   eleleftpos" "group elerightneg subtract  eleright  elerightpos" "compute qleftpos       eleleftpos  reduce sum v_q" "compute qleftneg       eleleftneg  reduce sum v_q" "compute qrightpos      elerightpos reduce sum v_q" "compute qrightneg      elerightneg reduce sum v_q" "compute qpos           elepos      reduce sum v_q" "compute qneg           eleneg      reduce sum v_q" "compute temppos   solpos temp" "compute tempneg   solneg temp"
group eleall        union eleleft eleright
192 atoms in group eleall
compute qleft       eleleft  reduce sum v_q
compute qright      eleright reduce sum v_q
compute qall        eleall   reduce sum v_q
compute tempsl      sol      temp


run_style           verlet
timestep            1
velocity ele set 0.0 0.0 0.0
fix 0 ele setforce 0.0 0.0 0.0

if "$n == 0" then "fix e all conp/v0 1 1.979 81 82 -0.5 0.5 inv iter" elif "$n == 1"  "fix e all conp/v1 1 1.979 81 82 -0.5 0.5 inv iter" elif "$n == 2"  "fix e all conp/v2 1 1.979 81 82 -0.5 0.5 inv iter" elif "$n == 3"  "fix e all conp/v3 1 1.979 81 82 -0.5 0.5 inv iter" elif "$n == 4"  "fix e all conp/v4 1 1.979 81 82 -0.5 0.5 inv iter" elif "$n == 5"  "fix e all conp/v4 1 1.979 81 82 -0.5 0.5 inv iter etypes 1 3" elif "$n == 6"  "fix e all conp/v4 1 1.979 81 82 -0.5 0.5 inv iter etypes 1 3 noslab zneutr" elif "$n == 7"  "fix e all conp/v4 1 1.979 81 82 -0.5 0.5 inv iter etypes 1 3 ffield" "fix efield all efield 0 0 $(-1.0/lz) " elif "$n == 8"  "fix e all conp/v4 1 1.979 81 82 -0.5 0.5 inv iter etypes 1 3 ffield" "fix efield all efield 0 0 $(-1.0/lz) "
fix e all conp/v4 1 1.979 81 82 -0.5 0.5 inv iter etypes 1 3 ffield
fix efield all efield 0 0 $(-1.0/lz) 
fix efield all efield 0 0 -0.011312217194570135456 


fix 1 sol nvt temp 298.0 298.0 100.0
if "$n != 6" then "thermo_style custom step temp c_tempsl c_qleft c_qright c_qall" elif "$n == 6" "thermo_style custom step temp c_temppos c_qleftneg c_qrightneg c_qneg c_qrightpos c_qleftpos c_qpos c_tempneg"
thermo_style custom step temp c_tempsl c_qleft c_qright c_qall
thermo              20

if "$n == 7" then "dump dsol sol atom 20 sol.traj"

if "$n <= 7" then "run 500" elif "$n == 8" "rerun sol.traj dump x y z"
rerun sol.traj dump x y z
PPPM initialization ...
  using 12-bit tables for long-range coulomb (src/kspace.cpp:328)
  G vector (1/distance) = 0.77236341
  grid = 27 24 144
  stencil order = 5
  estimated absolute RMS force accuracy = 0.00036681621
  estimated relative force accuracy = 1.1046561e-06
  using double precision MKL FFT
  3d grid and FFT values/proc = 203490 93312
Neighbor list info ...
  update every 1 steps, delay 10 steps, check yes
  max neighbors/atom: 2000, page size: 100000
  master list distance cutoff = 6
  ghost atom cutoff = 6
  binsize = 3, bins = 4 3 30
  3 neighbor lists, perpetual/occasional/extra = 2 1 0
  (1) pair lj/cut/coul/long, perpetual
      attributes: half, newton off
      pair build: half/bin/newtoff
      stencil: half/bin/3d/newtoff
      bin: standard
  (2) fix conp/v4, occasional, skip from (1)
      attributes: half, newton off
      pair build: skip
      stencil: none
      bin: none
  (3) fix conp/v4, perpetual, skip from (1)
      attributes: half, newton off
      pair build: skip
      stencil: none
      bin: none
Per MPI rank memory allocation (min/avg/max) = 24.48 | 24.48 | 24.48 Mbytes
Step Temp c_tempsl c_qleft c_qright c_qall 
       0            0            0  0.044054017 -0.044054017 3.9031278e-16 
      20            0            0  0.044054017 -0.044054017 3.9031278e-16 
      40            0            0  0.044054017 -0.044054017 3.9031278e-16 
      60            0            0  0.044054017 -0.044054017 3.9031278e-16 
WARNING: Inconsistent image flags (src/domain.cpp:812)
      80            0            0  0.044054017 -0.044054017 3.9031278e-16 
WARNING: Inconsistent image flags (src/domain.cpp:812)
     100            0            0  0.044054017 -0.044054017 3.9031278e-16 
WARNING: Inconsistent image flags (src/domain.cpp:812)
     120            0            0  0.044054017 -0.044054017 3.9031278e-16 
WARNING: Inconsistent image flags (src/domain.cpp:812)
     140            0            0  0.044054017 -0.044054017 3.9031278e-16 
WARNING: Inconsistent image flags (src/domain.cpp:812)
     160            0            0  0.044054017 -0.044054017 3.9031278e-16 
WARNING: Inconsistent image flags (src/domain.cpp:812)
     180            0            0  0.044054017 -0.044054017 3.9031278e-16 
WARNING: Inconsistent image flags (src/domain.cpp:812)
     200            0            0  0.044054017 -0.044054017 3.9031278e-16 
WARNING: Inconsistent image flags (src/domain.cpp:812)
     220            0            0  0.044054017 -0.044054017 3.9031278e-16 
WARNING: Inconsistent image flags (src/domain.cpp:812)
     240            0            0  0.044054017 -0.044054017 3.9031278e-16 
WARNING: Inconsistent image flags (src/domain.cpp:812)
     260            0            0  0.044054017 -0.044054017 3.9031278e-16 
WARNING: Inconsistent image flags (src/domain.cpp:812)
     280            0            0  0.044054017 -0.044054017 3.9031278e-16 
WARNING: Inconsistent image flags (src/domain.cpp:812)
     300            0            0  0.044054017 -0.044054017 3.9031278e-16 
WARNING: Inconsistent image flags (src/domain.cpp:812)
     320            0            0  0.044054017 -0.044054017 3.9031278e-16 
WARNING: Inconsistent image flags (src/domain.cpp:812)
     340            0            0  0.044054017 -0.044054017 3.9031278e-16 
WARNING: Inconsistent image flags (src/domain.cpp:812)
     360            0            0  0.044054017 -0.044054017 3.9031278e-16 
WARNING: Inconsistent image flags (src/domain.cpp:812)
     380            0            0  0.044054017 -0.044054017 3.9031278e-16 
WARNING: Inconsistent image flags (src/domain.cpp:812)
     400            0            0  0.044054017 -0.044054017 3.9031278e-16 
WARNING: Inconsistent image flags (src/domain.cpp:812)
     420            0            0  0.044054017 -0.044054017 3.9031278e-16 
WARNING: Inconsistent image flags (src/domain.cpp:812)
     440            0            0  0.044054017 -0.044054017 3.9031278e-16 
WARNING: Inconsistent image flags (src/domain.cpp:812)
     460            0            0  0.044054017 -0.044054017 3.9031278e-16 
WARNING: Inconsistent image flags (src/domain.cpp:812)
     480            0            0  0.044054017 -0.044054017 3.9031278e-16 
WARNING: Inconsistent image flags (src/domain.cpp:812)
     500            0            0  0.044054017 -0.044054017 3.9031278e-16 
Loop time of 1.3119 on 1 procs for 26 steps with 432 atoms

Performance: 1.712 ns/day, 14.016 hours/ns, 19.819 timesteps/s
403.5% CPU use with 1 MPI tasks x no OpenMP threads

MPI task timing breakdown:
Section |  min time  |  avg time  |  max time  |%varavg| %total
---------------------------------------------------------------
Pair    | 0          | 0          | 0          |   0.0 |  0.00
Bond    | 0          | 0          | 0          |   0.0 |  0.00
Kspace  | 0          | 0          | 0          |   0.0 |  0.00
Neigh   | 0          | 0          | 0          |   0.0 |  0.00
Comm    | 0          | 0          | 0          |   0.0 |  0.00
Output  | 0          | 0          | 0          |   0.0 |  0.00
Modify  | 0          | 0          | 0          |   0.0 |  0.00
Other   |            | 1.312      |            |       |100.00

Nlocal:        432.000 ave         432 max         432 min
Histogram: 1 0 0 0 0 0 0 0 0 0
Nghost:        2206.00 ave        2206 max        2206 min
Histogram: 1 0 0 0 0 0 0 0 0 0
Neighs:        18352.0 ave       18352 max       18352 min
Histogram: 1 0 0 0 0 0 0 0 0 0

Total # of neighbors = 18352
Ave neighs/atom = 42.481481
Ave special neighs/atom = 1.1111111
Neighbor list builds = 0
Dangerous builds = 0

Total wall time: 0:00:01
