LAMMPS data file via write_data, version 30 Nov 2020, timestep = 0 # formerly init2.data

3776 atoms
5 atom types
640 bonds
2 bond types
320 angles
1 angle types

0 32.2 xlo xhi
0 34.4 ylo yhi
-68 68 zlo zhi

Masses

1 67.06999999999999
2 15.04
3 57.12
4 144.96
5 12.001

Pair Coeffs # lj/cut/coul/long/intel

1 0.61185 4.38
2 0.08604 3.41
3 0.43738 5.04
4 1.12572 5.06
5 0.05497 3.37

Bond Coeffs # harmonic/intel

1 200 2.7076
2 200 3.8213

Angle Coeffs # harmonic/intel

1 200 116.035

Atoms # full

1 1 1 0.4374 8.377854232110954 31.09056455075867 -9.637911395311221 63 -8 0
2 1 2 0.1578 10.887596229718781 30.521863370328063 -10.101786314165572 63 -8 0
3 1 3 0.1848 7.272610424089277 32.07329597870556 -6.1419083680606175 63 -8 0
4 2 4 -0.78 11.760387274111876 6.35984851730579 -37.432592148519944 61 -6 0
5 3 1 0.4374 3.942392555557114 0.8674646944484107 -45.95985047276031 61 -7 0
6 3 2 0.1578 6.352215289910801 0.20987586322747992 -46.7918212377058 61 -7 0
7 3 3 0.1848 2.954570802624207 34.00768725959151 -42.47938517398798 61 -8 0
8 4 4 -0.78 16.74746827885534 2.7625072838242084 -32.72245549376387 61 -6 0
9 5 1 0.4374 19.594884655866693 21.385220363610003 -27.05615945659891 61 -7 0
10 5 2 0.1578 20.18647108138382 23.87675509378867 -26.150559365028247 61 -7 0
11 5 3 0.1848 19.61000049014724 21.227684439755205 -30.830247342847155 61 -7 0
12 6 4 -0.78 5.658458270844473 25.254382589719633 -36.917940668734666 61 -8 0
13 7 1 0.4374 21.993994876908108 31.41241515140974 -41.11078861032727 60 -6 0
14 7 2 0.1578 22.411971886158845 29.00032964974842 -40.12784871347506 60 -6 0
15 7 3 0.1848 20.28280745732357 31.462604028838776 -44.56048044312493 60 -6 0
16 8 4 -0.78 0.9484725623116002 6.455984211632101 -50.344909062927485 62 -7 0
17 9 1 0.4374 21.447823966372813 21.98101169266692 -40.00043986903557 61 -7 0
18 9 2 0.1578 19.999501271550788 24.093957634468858 -39.141796112325636 61 -7 0
19 9 3 0.1848 21.106713569326686 20.782616907544256 -43.56448715706116 61 -7 0
20 10 4 -0.78 26.555227316346272 22.17928356650529 -38.50744937126929 60 -8 0
21 11 1 0.4374 18.462686988177854 7.5560096911732515 -33.020561793789284 61 -7 0
22 11 2 0.1578 15.809957530291031 6.893335915393828 -32.95081398927907 61 -7 0
23 11 3 0.1848 20.65479411645841 6.130137665824172 -35.759184147781276 61 -7 0
24 12 4 -0.78 8.370371837476537 5.161258423724202 -30.969379571572745 61 -8 0
25 13 1 0.4374 6.405559967093766 7.848002623098009 -10.937832834661439 62 -7 0
26 13 2 0.1578 4.879921061694668 5.803487025327534 -11.777060515654894 62 -7 0
27 13 3 0.1848 9.117499178027916 6.904697592918624 -8.418682872307725 62 -7 0
28 14 4 -0.78 30.487599647931305 19.32775924932911 -28.06217450180209 60 -8 0
29 15 1 0.4374 9.155580688538475 1.8979353091038758 -27.102772818081135 58 -6 0
30 15 2 0.1578 10.636117180570269 2.2935645444389507 -24.898047380113567 58 -6 0
31 15 3 0.1848 11.110763241295649 0.4248704151483109 -30.033435850773355 58 -6 0
32 16 4 -0.78 24.704739843884745 12.807962152261979 -50.970409275492514 61 -7 0
33 17 1 0.4374 13.822643861399943 22.25348227816821 2.8533329510740275 62 -9 0
34 17 2 0.1578 11.862876151189125 20.840825051700747 1.7507023475200203 62 -9 0
35 17 3 0.1848 13.63426173522186 26.029484031522934 2.4439148923614056 62 -9 0
36 18 4 -0.78 30.294759327706938 27.71354823231914 -4.222896394088455 61 -7 0
37 19 1 0.4374 16.182049930818884 30.727901700456293 -50.76914301227412 61 -7 0
38 19 2 0.1578 16.597898543210704 32.14614702705483 -48.46131250187403 61 -7 0
39 19 3 0.1848 13.319207640939187 28.2059116048654 -50.839212200003374 61 -7 0
40 20 4 -0.78 18.673250587167146 7.867228308053842 -50.73200324770846 61 -7 0
41 21 1 0.4374 2.4615299147137897 1.5912087317035009 23.132270008282244 64 -8 0
42 21 2 0.1578 4.080519001764847 3.75524374864993 23.30562167966444 64 -8 0
43 21 3 0.1848 32.18324736536419 1.3248132468975558 25.977936527040825 63 -8 0
44 22 4 -0.78 16.53841792620719 5.528259359347647 -19.06410523946681 60 -7 0
45 23 1 0.4374 29.295663578773453 15.24091604040574 -19.714852680703483 60 -6 0
46 23 2 0.1578 30.421883417594877 17.718894595321125 -19.920492159656874 60 -6 0
47 23 3 0.1848 28.47956976628562 13.604926820029242 -23.079775464169387 60 -6 0
48 24 4 -0.78 5.9711233427864405 11.864588295803621 -35.84607139557541 61 -6 0
49 25 1 0.4374 25.322941850479534 18.76900772506071 -13.835703322677592 61 -6 0
50 25 2 0.1578 23.72847180616536 16.688924668304697 -13.082434454278808 61 -6 0
51 25 3 0.1848 26.586752230318684 18.85170716732862 -17.351252666169476 61 -6 0
52 26 4 -0.78 16.39647473717185 4.82807327459261 -45.23314401026406 60 -6 0
53 27 1 0.4374 9.493888200842747 10.920381706007372 16.552878967326706 61 -7 0
54 27 2 0.1578 10.340028885227818 8.415775749658932 16.95121012709648 61 -7 0
55 27 3 0.1848 5.733782206749285 11.501054504618848 17.141742136064174 61 -7 0
56 28 4 -0.78 14.733687961507039 8.990174177336923 2.5655943122909965 61 -5 0
57 29 1 0.4374 11.198492316564431 14.636215529508327 -51.03508002801928 62 -6 0
58 29 2 0.1578 10.992518881876467 17.25225762730815 -51.15515725003725 62 -6 0
59 29 3 0.1848 14.583682688402684 13.259746819535694 -49.84012143245544 62 -6 0
60 30 4 -0.78 18.176844198516303 26.90872741818206 -49.43886192705614 61 -6 0
61 31 1 0.4374 21.994058971915337 3.914840423280229 -19.796958901082476 62 -6 0
62 31 2 0.1578 20.454572382969744 5.027711918241017 -17.929412763294007 62 -6 0
63 31 3 0.1848 20.36889074567923 1.9502050350307314 -22.641861722738717 62 -6 0
64 32 4 -0.78 14.766030797622864 18.402269234478783 -50.61069586455347 62 -7 0
65 33 1 0.4374 30.223776637651476 18.7150291154093 41.89603356522568 60 -7 0
66 33 2 0.1578 30.940534123075007 16.118253827005713 42.160507974122424 60 -7 0
67 33 3 0.1848 29.889077041311644 20.010207716341004 38.34075078946124 60 -7 0
68 34 4 -0.78 23.753426276762607 12.941912372596398 -8.982203785397997 61 -8 0
69 35 1 0.4374 9.339446182928512 31.113089862310396 -22.124541508488637 63 -9 0
70 35 2 0.1578 11.177424901090793 29.724544836285006 -20.963389400300954 63 -9 0
71 35 3 0.1848 5.538407806525119 30.44233114346712 -21.452352546471605 63 -9 0
72 36 4 -0.78 28.37961528535489 12.56445517777693 -42.058945013516364 61 -9 0
73 37 1 0.4374 28.076875622626694 9.673166108914513 -16.07590672722708 60 -10 0
74 37 2 0.1578 26.452480250972847 9.169700067452077 -13.968081682563618 60 -10 0
75 37 3 0.1848 31.05869611938043 11.844551842532086 -15.267551015736377 60 -10 0
76 38 4 -0.78 27.392169131987327 29.406258674011983 1.2709174916556725 62 -7 0
77 39 1 0.4374 16.54999858020037 24.65976325098173 -5.538999945866397 62 -6 0
78 39 2 0.1578 18.95376840454511 25.65384775899422 -6.422250636921818 62 -6 0
79 39 3 0.1848 16.310952039773493 20.8927065646848 -5.969287670094509 62 -6 0
80 40 4 -0.78 20.96264519681802 6.664948740500549 -23.479676485345614 60 -5 0
81 41 1 0.4374 9.209304085891018 0.9468710344737471 2.14626438523635 63 -7 0
82 41 2 0.1578 8.375212143329643 3.466093407634117 2.3277970831930936 63 -7 0
83 41 3 0.1848 9.002875767172808 33.468175769655836 -1.158487020930893 63 -8 0
84 42 4 -0.78 15.946870609151155 21.997758600390913 -45.30192902863569 60 -6 0
85 43 1 0.4374 23.305702345787225 19.79337183953352 -0.1384887853336485 60 -7 0
86 43 2 0.1578 24.57466621994431 20.658288557036723 -2.4362634263954885 60 -7 0
87 43 3 0.1848 25.55489722537426 19.4915720265879 2.9353775578433794 60 -7 0
88 44 4 -0.78 29.721735115510914 9.357778013149302 -20.516210961222697 61 -8 0
89 45 1 0.4374 9.748796117855848 27.436011723661096 -45.72794223229973 61 -7 0
90 45 2 0.1578 7.465944275444614 25.99821007020841 -45.493756196517666 61 -7 0
91 45 3 0.1848 12.851660021611789 25.34414368041327 -46.55752017954726 61 -7 0
92 46 4 -0.78 22.72235314132259 27.333227226397486 10.116854093456787 62 -9 0
93 47 1 0.4374 11.195483254332581 20.47793630471465 -32.7252106596751 61 -8 0
94 47 2 0.1578 9.381899762485231 21.85088488307438 -34.272060218546365 61 -8 0
95 47 3 0.1848 14.603932448126267 22.10626511584613 -32.48446077203917 61 -8 0
96 48 4 -0.78 21.06222123419292 24.41439728291029 -2.7351381973846842 61 -7 0
97 49 1 0.4374 29.0108043860745 33.61479417598233 -41.6137380307278 59 -6 0
98 49 2 0.1578 26.463955555802208 33.56979449249842 -40.690809301783425 59 -6 0
99 49 3 0.1848 30.8133946492016 2.5452227010297594 -41.835501353356854 59 -5 0
100 50 4 -0.78 19.28154287180199 8.394091534063318 -9.215958548109572 61 -5 0
101 51 1 0.4374 5.382326172610392 25.624962125115896 -11.039260831341762 62 -7 0
102 51 2 0.1578 5.892674459670256 27.263018719746682 -8.921647302786612 62 -7 0
103 51 3 0.1848 7.098974703315445 22.274952859302022 -10.692277427324909 62 -7 0
104 52 4 -0.78 19.278905069406854 23.55871594999735 -35.368961899365296 61 -6 0
105 53 1 0.4374 19.87370814942991 28.532639117363402 27.264024003589928 63 -10 0
106 53 2 0.1578 21.794575150536406 30.353341598976975 26.974247056713686 63 -10 0
107 53 3 0.1848 16.850170697936463 29.73551277931115 29.197843087230098 63 -10 0
108 54 4 -0.78 9.86260803195846 28.136070348593485 -41.05594605487383 62 -7 0
109 55 1 0.4374 24.21695624815969 33.55522698479091 -34.85433120141366 61 -6 0
110 55 2 0.1578 23.374295840890035 32.332508595478515 -32.47682256441951 61 -6 0
111 55 3 0.1848 21.551692318799788 1.406064553280091 -36.36159055643531 61 -5 0
112 56 4 -0.78 13.718737214381672 30.67537677217431 -46.07211129006665 62 -8 0
113 57 1 0.4374 21.82660195147976 2.2770398650901273 -10.104063605220679 61 -6 0
114 57 2 0.1578 19.81916128236824 1.3978370556097561 -11.794551381707135 61 -6 0
115 57 3 0.1848 21.223761722254363 1.956496494410717 -6.362743835614173 61 -6 0
116 58 4 -0.78 8.163184178438629 10.25289955405085 -49.75684682854662 61 -7 0
117 59 1 0.4374 23.52700288395894 25.810506942434177 -35.403496296322395 60 -7 0
118 59 2 0.1578 22.872128935049815 23.88716019780423 -33.548048829153366 60 -7 0
119 59 3 0.1848 20.899793332441078 28.395324532759673 -36.366183624797834 60 -7 0
120 60 4 -0.78 6.912482895673679 12.617850758480897 -42.118232934569726 60 -7 0
121 61 1 0.4374 12.105704230852098 13.305342363911723 -16.20258179744797 61 -8 0
122 61 2 0.1578 11.66615134504432 12.605726603774661 -13.638739726778681 61 -8 0
123 61 3 0.1848 15.402851692851291 15.035484844567948 -16.84624231963299 61 -8 0
124 62 4 -0.78 21.549435214519725 31.89952643270232 -9.260291216194393 60 -8 0
125 63 1 0.4374 3.709891711371492 12.134885977410528 -50.09793068994146 62 -7 0
126 63 2 0.1578 4.120726341643531 9.581084572940084 -50.94812656795109 62 -7 0
127 63 3 0.1848 0.2589342207609217 13.586447472116365 -50.70908264288452 62 -7 0
128 64 4 -0.78 9.536488214906905 4.424901486407744 -45.966163912362774 62 -6 0
129 65 1 0.4374 25.85929728109328 0.41640893893705677 -46.72468159728675 61 -7 0
130 65 2 0.1578 23.549620679936737 33.93387749993527 -45.739279557938914 61 -8 0
131 65 3 0.1848 27.75173300388316 32.167110414211876 -48.720374371828754 61 -8 0
132 66 4 -0.78 6.856751826472618 17.238573197753507 -50.78325729869631 61 -6 0
133 67 1 0.4374 31.5087276469445 1.821597822758927 -51.01736509072289 60 -7 0
134 67 2 0.1578 30.43770256356713 2.7851024827272988 -48.781474762021226 60 -7 0
135 67 3 0.1848 0.2426779128515238 32.50343105558201 -50.852522491750484 61 -8 0
136 68 4 -0.78 0.7231931383102721 23.877540315299772 -45.21693763763825 62 -6 0
137 69 1 0.4374 27.925148438680722 0.05854443225670991 -24.831200817846508 61 -8 0
138 69 2 0.1578 27.48285946845124 31.786431353501072 -24.53608510857881 61 -9 0
139 69 3 0.1848 24.770475576527215 2.0227250419934206 -25.90934335996211 61 -8 0
140 70 4 -0.78 2.095125145616795 11.287899122523124 -46.01115768243958 61 -6 0
141 71 1 0.4374 9.592200019176037 2.649213256490404 -50.62603662152313 62 -8 0
142 71 2 0.1578 10.36939835203287 1.041456753729733 -48.57489127900858 62 -8 0
143 71 3 0.1848 11.206208599027624 6.0387063935657705 -50.96632503205144 62 -8 0
144 72 4 -0.78 0.7552161581570257 27.181666615674473 -50.09613762869316 62 -8 0
145 73 1 0.4374 19.249285783792583 4.17068144253827 -40.93550532721096 61 -5 0
146 73 2 0.1578 19.051890032489734 3.0665047052086614 -43.4208051367656 61 -5 0
147 73 3 0.1848 16.890822037447276 7.207070350473579 -40.57661071070386 61 -5 0
148 74 4 -0.78 7.3905777929024215 14.12717383615181 12.39132697320356 63 -6 0
149 75 1 0.4374 16.698460404914556 18.89634169661154 30.086537447959053 62 -7 0
150 75 2 0.1578 17.11652182077896 16.77027193214198 28.518719188199906 62 -7 0
151 75 3 0.1848 18.711112236306686 18.940198647700964 33.30990096727415 62 -7 0
152 76 4 -0.78 4.311104671575 2.0866334291753166 -14.594330169473228 59 -6 0
153 77 1 0.4374 7.382985882564562 18.442200792649857 -14.275051700112567 61 -6 0
154 77 2 0.1578 9.149567648202947 16.72503803327688 -12.993745345996016 61 -6 0
155 77 3 0.1848 7.215166715279646 18.075836457333907 -18.04799503448426 61 -6 0
156 78 4 -0.78 26.43172565139543 15.13569920335636 12.028735765109996 61 -6 0
157 79 1 0.4374 0.012602407394098234 32.268815561515986 -13.48493178958337 62 -6 0
158 79 2 0.1578 2.4824881090190307 33.042180679754125 -14.19646225164291 62 -6 0
159 79 3 0.1848 31.2130293771518 33.254151347562455 -9.918585334452093 61 -6 0
160 80 4 -0.78 0.8267170659341131 0.410453851880919 18.002781790813017 64 -6 0
161 81 1 0.4374 9.252443327327242 10.254358189407142 -21.776652010102428 59 -5 0
162 81 2 0.1578 11.203830222948802 9.835584679879249 -23.493657646077892 59 -5 0
163 81 3 0.1848 8.562814628487459 13.825068380148382 -20.798319816500992 59 -5 0
164 82 4 -0.78 19.541661916630304 13.21384333679096 -22.03702389066157 62 -7 0
165 83 1 0.4374 19.670472623416458 32.520894405802025 9.44347694560919 62 -7 0
166 83 2 0.1578 19.068845097129962 34.03827991942903 7.356670411042251 62 -7 0
167 83 3 0.1848 20.894854917957726 34.29214559069734 12.628813433458308 62 -7 0
168 84 4 -0.78 26.052389046385898 29.52861353606063 -36.86548292993418 60 -7 0
169 85 1 0.4374 0.8455677621182531 19.407030918875233 -45.92421411044747 62 -4 0
170 85 2 0.1578 3.0231190426973007 19.99582803451006 -44.405435372065895 62 -4 0
171 85 3 0.1848 31.064004306743506 16.1576111571175 -45.106063893080396 61 -4 0
172 86 4 -0.78 10.659345052688842 1.1557226998580885 14.683075196865207 63 -7 0
173 87 1 0.4374 21.741164579295727 32.340791302670986 -15.745242251474423 61 -7 0
174 87 2 0.1578 19.78632896900323 32.0494593556964 -13.804566235578838 61 -7 0
175 87 3 0.1848 20.43300024037095 32.383541325248764 -19.233311853491124 61 -7 0
176 88 4 -0.78 11.46101186804296 34.166538639565694 -19.549125848700545 63 -6 0
177 89 1 0.4374 16.660343901001212 23.038817724550718 -50.98087438574844 62 -6 0
178 89 2 0.1578 14.415298465314532 23.14783713341773 -49.60055827532053 62 -6 0
179 89 3 0.1848 19.402287632960096 21.3603731113761 -48.963448265559094 62 -6 0
180 90 4 -0.78 30.226151061769194 7.3580645645574165 -36.2969951908542 61 -5 0
181 91 1 0.4374 18.826133401417795 8.822850626896118 -45.65065449146335 61 -6 0
182 91 2 0.1578 19.58429547752902 11.372595203905407 -45.117168333591245 61 -6 0
183 91 3 0.1848 21.491620591781587 6.004714544954275 -45.80418466746812 61 -6 0
184 92 4 -0.78 3.5260367885403014 5.12137962948756 -8.035163484489026 62 -7 0
185 93 1 0.4374 7.272265108122042 29.47676527843072 15.21024799016943 63 -7 0
186 93 2 0.1578 9.717131538399727 30.774546468086935 15.171243829578767 63 -7 0
187 93 3 0.1848 7.258603801326016 25.69954731547202 14.700632054187253 63 -7 0
188 94 4 -0.78 8.306555918801331 26.287572383244385 -50.55377212163829 61 -7 0
189 95 1 0.4374 28.43598098982943 1.293723928051713 -31.591301301576593 61 -6 0
190 95 2 0.1578 29.707022414849774 0.075335351480014 -29.58850217464322 61 -6 0
191 95 3 0.1848 28.92792538727675 5.076702124905691 -31.781525375958978 61 -6 0
192 96 4 -0.78 24.206344568643534 22.905307342969515 -50.58041557236621 62 -6 0
193 97 1 0.4374 24.201531788678764 15.3551847710107 -2.940256598949888 62 -6 0
194 97 2 0.1578 22.002395138829804 13.957005386242702 -3.6086357345705724 62 -6 0
195 97 3 0.1848 26.123013669062246 16.869584949252648 -5.954261522363279 62 -6 0
196 98 4 -0.78 26.178536110513306 14.437411320849165 -15.287653418964808 61 -8 0
197 99 1 0.4374 3.1370184450458587 21.783215523951597 -35.07419430982596 62 -6 0
198 99 2 0.1578 4.674958684769119 23.047996569867344 -33.23737150740734 62 -6 0
199 99 3 0.1848 31.672561655328835 21.33651839714126 -34.09517584365547 61 -6 0
200 100 4 -0.78 25.7663310905046 0.6283991938558124 15.007875155211359 62 -7 0
201 101 1 0.4374 31.584093671808773 5.921827432497757 -45.810895340809054 62 -7 0
202 101 2 0.1578 29.734648586180683 5.8318611251221935 -47.795553797918515 62 -7 0
203 101 3 0.1848 30.851970704363378 8.346928709870307 -42.973766474112956 62 -7 0
204 102 4 -0.78 20.055457754335333 19.87927854806735 26.73799850609191 62 -7 0
205 103 1 0.4374 24.629975988788246 11.938803508301225 20.687956202332057 62 -8 0
206 103 2 0.1578 23.962754028403108 9.699720994681048 19.34115482307471 62 -8 0
207 103 3 0.1848 21.881672349860104 13.834616210234639 22.610623530522687 62 -8 0
208 104 4 -0.78 28.007444904847464 18.807594194561165 -1.7147249524014159 62 -9 0
209 105 1 0.4374 16.81230930984316 27.45389572995953 -44.53797962233151 61 -7 0
210 105 2 0.1578 18.265839114273284 25.46079102826737 -45.73769296882474 61 -7 0
211 105 3 0.1848 15.973626372966079 26.97375146409199 -40.79556489340603 61 -7 0
212 106 4 -0.78 29.604651529558282 27.651717120593972 18.043507086357778 60 -7 0
213 107 1 0.4374 11.064553800405056 22.98383624111875 -15.815651356018282 62 -8 0
214 107 2 0.1578 9.26455188703491 24.71862037950764 -16.769325329427232 62 -8 0
215 107 3 0.1848 13.636822858956318 24.485510934156142 -13.312107146534562 62 -8 0
216 108 4 -0.78 29.87980338788184 22.254978227691954 11.73707826824319 61 -9 0
217 109 1 0.4374 0.600484536043049 5.306818569593832 -12.159901922287489 63 -7 0
218 109 2 0.1578 0.10253139884675021 2.844065143416676 -11.280485315073161 63 -7 0
219 109 3 0.1848 31.79018084462913 6.369957078016819 -15.780832821409032 62 -7 0
220 110 4 -0.78 21.935862515252357 6.117594618904641 1.776045278937823 61 -6 0
221 111 1 0.4374 4.829050607886132 10.21651076913786 -18.284905074292386 60 -7 0
222 111 2 0.1578 3.6858647192929306 12.334763552645898 -16.951158367281764 60 -7 0
223 111 3 0.1848 6.386671855513341 7.458335262746559 -16.16608664603611 60 -7 0
224 112 4 -0.78 29.56432535551657 8.900180563064508 -11.534840332204892 61 -8 0
225 113 1 0.4374 1.6806459853316893 21.8874119694796 -26.515273118594383 59 -7 0
226 113 2 0.1578 1.5846867787892052 22.17586587109469 -23.80853598073426 59 -7 0
227 113 3 0.1848 5.099272066303026 21.255855806464364 -28.10592712930023 59 -7 0
228 114 4 -0.78 29.13287120186133 15.38208504133899 5.074284975974282 60 -9 0
229 115 1 0.4374 14.274491430337331 0.8749236487732265 -45.45069826197014 62 -6 0
230 115 2 0.1578 16.891180193473957 0.12009086007588972 -45.28570503990824 62 -6 0
231 115 3 0.1848 12.80670241239128 2.362488443867504 -42.32087554629227 62 -6 0
232 116 4 -0.78 11.776265123263235 30.09214350846722 19.48432203774324 64 -9 0
233 117 1 0.4374 30.85814915447314 22.40082280724405 -41.20516215747194 62 -7 0
234 117 2 0.1578 31.72440853180802 20.088786687484696 -42.392231814918624 62 -7 0
235 117 3 0.1848 1.2931959415901202 24.34757911581757 -39.19615129984779 63 -7 0
236 118 4 -0.78 3.5741432406000926 5.279855713990056 -19.858189553855436 61 -6 0
237 119 1 0.4374 13.804791507747833 9.03393547387283 -10.101359770683874 64 -8 0
238 119 2 0.1578 13.888776123172178 6.587906129820243 -9.184715462744634 64 -8 0
239 119 3 0.1848 10.690335083323339 11.416457928215268 -9.633280525223599 64 -8 0
240 120 4 -0.78 8.192394696670524 31.264889130556845 -26.854654592370604 62 -8 0
241 121 1 0.4374 2.760285301755632 11.15827251595975 -40.49174341069117 60 -6 0
242 121 2 0.1578 2.496025942744281 9.14302608531373 -42.32732123184353 60 -6 0
243 121 3 0.1848 0.6873949331534517 14.347566977095424 -40.86857981510907 60 -6 0
244 122 4 -0.78 13.673557946232405 10.390227085129904 -32.9507745108508 60 -8 0
245 123 1 0.4374 13.189349028596457 18.751271535526552 -1.8763655379340798 61 -6 0
246 123 2 0.1578 12.140726392934063 19.74956662859045 -4.2112570888481144 61 -6 0
247 123 3 0.1848 16.343999156718834 16.645780780500186 -2.354856917870959 61 -6 0
248 124 4 -0.78 24.481402604379053 25.194254555588405 -9.664398008927105 60 -6 0
249 125 1 0.4374 5.551541945239586 22.08692500626511 -4.4169233530356085 62 -6 0
250 125 2 0.1578 3.854415191301722 24.195680793225737 -4.308189072587126 62 -6 0
251 125 3 0.1848 9.091908329098855 22.8265245691213 -5.427226724293117 62 -6 0
252 126 4 -0.78 28.13982632498965 19.81374708252399 -44.114975753420964 62 -7 0
253 127 1 0.4374 17.437679488161717 19.999540807105557 22.77069879412158 61 -8 0
254 127 2 0.1578 16.19010223486458 21.14209691064629 20.675825379161054 61 -8 0
255 127 3 0.1848 20.86073023483384 18.56067946108298 22.0076483350636 61 -8 0
256 128 4 -0.78 17.728963201974445 21.004508082006808 -22.33540874228008 61 -7 0
257 129 1 0.4374 5.4337252983616855 23.48274590363392 -48.34215008270498 61 -9 0
258 129 2 0.1578 4.5760935715848525 25.98366451760948 -48.00262662647999 61 -9 0
259 129 3 0.1848 3.3417530333433945 21.057256632075138 -50.3647327607698 61 -9 0
260 130 4 -0.78 16.501956687193893 27.063195669304555 -16.85143506542367 63 -10 0
261 131 1 0.4374 31.589653315513083 18.958573398541933 1.891261993695288 63 -9 0
262 131 2 0.1578 31.483166567941687 19.060168765160313 4.610567358508254 63 -9 0
263 131 3 0.1848 0.5561260297158979 15.530442180109285 0.6188924573659191 64 -9 0
264 132 4 -0.78 17.50549649290374 8.275716850449436 -28.186416635716228 63 -7 0
265 133 1 0.4374 11.753940526850354 13.27288363179099 -41.09070461049569 60 -8 0
266 133 2 0.1578 10.240244104366177 15.351123854770318 -41.92149311393343 60 -8 0
267 133 3 0.1848 11.727496927598796 12.678033416673669 -37.25880978810913 60 -8 0
268 134 4 -0.78 11.267718845730515 19.127940099176207 -37.870826235976345 60 -8 0
269 135 1 0.4374 4.67412015515532 14.101552881894618 -10.773318271202319 61 -7 0
270 135 2 0.1578 5.978137685926622 11.804954900766647 -11.192185589278882 61 -7 0
271 135 3 0.1848 3.1543862351245706 15.61261381355228 -13.957852660155526 61 -7 0
272 136 4 -0.78 13.38796594187673 24.91993549494278 -36.79896654969885 60 -8 0
273 137 1 0.4374 30.463033755452713 30.64173617047076 -36.162053394104156 60 -7 0
274 137 2 0.1578 29.167015898153966 31.5636568280556 -33.98047903524069 60 -7 0
275 137 3 0.1848 0.9609383402604876 27.94141661775313 -35.313431335164154 61 -7 0
276 138 4 -0.78 23.16726379344587 24.5831645762398 -23.523535269658893 61 -7 0
277 139 1 0.4374 8.122091896313867 7.877439342496643 3.540341732230762 63 -5 0
278 139 2 0.1578 7.095485022422222 5.5321364870597955 4.565444299704779 63 -5 0
279 139 3 0.1848 9.662894005651431 7.895992050933492 0.0652170303314703 63 -5 0
280 140 4 -0.78 21.791914507981794 11.236988951162516 -34.5828827931448 62 -9 0
281 141 1 0.4374 10.718758530597114 2.628471386206021 -34.86325295718185 62 -6 0
282 141 2 0.1578 12.772883626764392 2.0201868474613556 -33.15175083205111 62 -6 0
283 141 3 0.1848 7.359292333432722 1.1752712978916457 -33.86505198219398 62 -6 0
284 142 4 -0.78 1.9415484248413435 18.629858953108183 -39.08616128829538 62 -7 0
285 143 1 0.4374 24.61802783288777 27.817201491952225 -26.647704570272836 62 -7 0
286 143 2 0.1578 24.553967903291266 28.879907165995927 -24.181370067976317 62 -7 0
287 143 3 0.1848 21.788048848882372 28.57681761064861 -29.064800920254434 62 -7 0
288 144 4 -0.78 29.52153998894755 30.470641973409354 37.57089514884364 64 -9 0
289 145 1 0.4374 8.996004603998616 2.2236649703706224 35.95396412837741 61 -7 0
290 145 2 0.1578 7.325848268455904 0.12996479398128002 36.002351471923056 61 -7 0
291 145 3 0.1848 12.757873734424756 1.7106413387747532 35.39510969639069 61 -7 0
292 146 4 -0.78 4.632002837132181 1.0366995117972257 -50.62931103972329 61 -6 0
293 147 1 0.4374 24.015270615390136 29.436744352845203 -12.315418353236264 59 -5 0
294 147 2 0.1578 25.57878224371022 27.49145486421593 -13.367320996748806 59 -5 0
295 147 3 0.1848 25.730251150847753 32.8412097771717 -11.996539677451802 59 -5 0
296 148 4 -0.78 7.114273706652929 21.694663928081592 -44.46903039419782 61 -7 0
297 149 1 0.4374 26.483849556881047 6.171514976053358 50.900187809982874 61 -7 0
298 149 2 0.1578 24.987176879796245 5.668377375093461 48.70024499528179 61 -7 0
299 149 3 0.1848 28.698758844311833 9.306007549077417 50.6312750630848 61 -7 0
300 150 4 -0.78 7.240308523869178 13.357090367608654 5.5795820900522335 63 -7 0
301 151 1 0.4374 20.962539531172677 24.34635685211362 -13.184403681736729 61 -6 0
302 151 2 0.1578 21.57560689692887 22.658356795749057 -11.133600604499524 61 -6 0
303 151 3 0.1848 19.314697472158155 27.688061494604955 -12.31805901304723 61 -6 0
304 152 4 -0.78 24.49756457802605 28.71789522532507 -17.23219112484033 62 -7 0
305 153 1 0.4374 9.02205471602141 17.468615991487585 15.381910461959034 61 -6 0
306 153 2 0.1578 8.315566340501222 19.4219822054888 13.571191406979828 61 -6 0
307 153 3 0.1848 12.333604864076557 15.5396405491816 14.722592282682452 61 -6 0
308 154 4 -0.78 7.956916620454231 2.897360805947447 -4.826776192994226 60 -6 0
309 155 1 0.4374 4.258419635101933 15.70343808237665 -5.132621205732704 60 -7 0
310 155 2 0.1578 3.652106806909234 17.962772949351237 -6.508706498267497 60 -7 0
311 155 3 0.1848 1.442658763790756 13.359113517391041 -4.22830780795565 60 -7 0
312 156 4 -0.78 2.100390152703338 18.664869789355194 -2.5956551641862537 61 -6 0
313 157 1 0.4374 30.9052002692065 19.78145778309654 -5.789627045962491 63 -6 0
314 157 2 0.1578 30.458774198018425 17.45380463956334 -4.752068674504436 63 -6 0
315 157 3 0.1848 31.364532006836058 22.574284057135625 -3.210148119141918 63 -6 0
316 158 4 -0.78 2.0069324603751926 30.98095048290252 25.49721867165258 62 -7 0
317 159 1 0.4374 0.5938461758124978 26.44281875808316 9.491323758431932 61 -6 0
318 159 2 0.1578 30.59565777817486 26.622685106222878 8.00384194041459 60 -6 0
319 159 3 0.1848 2.6176302241866747 23.285582604112708 8.88873550231972 61 -6 0
320 160 4 -0.78 13.933640604643886 0.40845352154117187 -50.710525689867765 61 -6 0
321 161 1 0.4374 11.86376658172655 8.988717869719288 -28.89636047640893 61 -7 0
322 161 2 0.1578 12.778000790136984 10.072890598810151 -26.564892663631596 61 -7 0
323 161 3 0.1848 13.283921259309155 5.564461961385537 -29.745359670167634 61 -7 0
324 162 4 -0.78 26.771513780940797 2.904261307124844 -50.52789006345866 59 -4 0
325 163 1 0.4374 1.7248798072301403 28.344031980653522 -24.689950514848448 64 -8 0
326 163 2 0.1578 0.30414927897995175 28.599312158389903 -22.360954157829195 64 -8 0
327 163 3 0.1848 0.017719578728339513 29.79730199532987 -27.78605304980516 64 -8 0
328 164 4 -0.78 25.706879908985417 30.634548398674223 -43.92675208520155 60 -8 0
329 165 1 0.4374 13.264116814247524 22.911332775046574 -25.396811890273252 62 -6 0
330 165 2 0.1578 15.324670740174406 23.646580852971127 -23.867557102819134 62 -6 0
331 165 3 0.1848 13.48054305477485 19.558737127122452 -27.02654424482435 62 -6 0
332 166 4 -0.78 16.521289982032513 17.28254444508453 18.417621085381516 62 -6 0
333 167 1 0.4374 24.37567185241304 8.078293015109795 29.679020971813053 65 -8 0
334 167 2 0.1578 23.932175271794634 7.804388702171597 26.971042548529024 65 -8 0
335 167 3 0.1848 23.864786545615736 11.556167129377386 31.11486993949032 65 -8 0
336 168 4 -0.78 9.958595557304553 23.46269149489431 5.533562273691903 62 -10 0
337 169 1 0.4374 16.340081799696588 29.71155231411327 13.072879232370838 61 -9 0
338 169 2 0.1578 17.851748013992577 27.54142673770159 13.913463890906456 61 -9 0
339 169 3 0.1848 14.117262009062948 31.4345330706975 15.626477549276661 61 -9 0
340 170 4 -0.78 11.772655689878386 15.169280249605302 -45.87847559823866 62 -7 0
341 171 1 0.4374 30.51167746401568 33.10817105093261 2.8242419841411044 60 -9 0
342 171 2 0.1578 31.392300781744247 30.862507585348027 1.8429408461430024 60 -9 0
343 171 3 0.1848 27.703058580764214 32.674949450787835 5.316202667711881 60 -9 0
344 172 4 -0.78 31.581978845700384 21.398457737430824 -17.048036820176534 60 -8 0
345 173 1 0.4374 3.8058795728718513 5.573972296620303 51.244937591363765 62 -8 0
346 173 2 0.1578 2.634030604912774 3.2805206006665064 50.358812087872884 62 -8 0
347 173 3 0.1848 1.5459175135646763 8.634435650816684 50.89502886901593 62 -8 0
348 174 4 -0.78 3.3718998173012036 9.761916093182366 -13.454350585773298 63 -6 0
349 175 1 0.4374 28.611851475680545 32.01021569228205 -16.69315375492244 63 -8 0
350 175 2 0.1578 26.314595153343475 33.56438792415983 -16.49220283429971 63 -8 0
351 175 3 0.1848 28.685434407412654 30.354068669446004 -20.11426891498453 63 -8 0
352 176 4 -0.78 11.538087435931514 30.931105756652084 -33.775728469731746 61 -8 0
353 177 1 0.4374 7.634660393235419 32.664352118352106 18.501904191236612 61 -5 0
354 177 2 0.1578 7.647533421598973 0.514285735944426 17.105290370774334 61 -4 0
355 177 3 0.1848 4.399099003566975 32.156918283704634 20.53739503502029 61 -5 0
356 178 4 -0.78 1.316027196185268 0.2774326878577235 40.76756722984333 62 -11 0
357 179 1 0.4374 0.9765169445585083 0.8421737055564271 -18.016090379342874 62 -7 0
358 179 2 0.1578 3.3035113225297077 33.970550264946695 -18.799072764634516 62 -8 0
359 179 3 0.1848 31.519418378456677 2.6744762041403245 -20.858447994515164 61 -7 0
360 180 4 -0.78 10.053785262144826 0.19913467545545635 -38.41228436635027 59 -6 0
361 181 1 0.4374 0.9834893169598805 1.4976928202259974 -27.24554541601141 61 -4 0
362 181 2 0.1578 1.3603449904081062 3.157458108462951 -25.05357332571028 61 -4 0
363 181 3 0.1848 4.186087027545904 0.49413911649953435 -28.91097269231973 61 -4 0
364 182 4 -0.78 28.65545685066579 20.196933061892004 -10.325174485147434 61 -7 0
365 183 1 0.4374 29.157518578728048 22.940291315428404 -49.63031795202441 62 -9 0
366 183 2 0.1578 27.809018614842127 22.02812763174666 -47.538511160902054 62 -9 0
367 183 3 0.1848 27.951184839601318 26.48343292812101 -50.60079531228362 62 -9 0
368 184 4 -0.78 17.332960573200538 24.348139276679373 19.660279634868644 62 -9 0