LAMMPS data file via write_data, version 30 Nov 2020, timestep = 0

5664 atoms
8 atom types
1440 bonds
2 bond types
720 angles
1 angle types

0 39.4 xlo xhi
0 51.15 ylo yhi
-70 70 zlo zhi

Masses

1 15.04
2 67.06999999999999
3 29.07
4 86.81
5 12.01
6 12.01
7 12.01
8 1.008

Pair Coeffs # lj/cut/coul/long

1 0.08604 3.41
2 0.61186 4.38
3 0.29637 4.38
4 0.77438 4.51
5 0.0951 3.473
6 0.0951 3.473
7 0.0951 3.473
8 0.0152 2.846

Bond Coeffs # harmonic

1 500 2.7
2 500 3.025

Angle Coeffs # harmonic

1 59.752 130

Atoms # full

3000 1443 5 0 3.6799994 8.209984200000001 -53.567099999999996 0 0 0
3073 1443 5 0 6.138992799999999 3.9560023799999997 -53.48912 0 0 0
3170 1443 5 0 8.602989999999998 6.801978149999999 -53.6 0 0 0
3124 1443 5 0 7.3709913999999985 6.0850086 -53.58502 0 0 0
2910 1443 5 0 1.21799978 6.801978149999999 -53.6 0 0 0
3079 1443 5 0 6.1410022 6.801978149999999 -53.6 0 0 0
3176 1443 5 0 8.604014399999999 8.209984200000001 -53.567099999999996 0 0 0
3033 1443 5 0 4.9080186 4.670000115 -53.524119999999996 0 0 0
2916 1443 5 0 1.21900054 8.209984200000001 -53.567099999999996 0 0 0
2988 1443 5 0 3.6770010599999994 3.9560023799999997 -53.48912 0 0 0
3206 1443 5 0 9.831994199999999 4.670000115 -53.524119999999996 0 0 0
3039 1443 5 0 4.909988599999999 6.0850086 -53.58502 0 0 0
3088 1443 5 0 6.1419872 8.209984200000001 -53.567099999999996 0 0 0
3161 1443 5 0 8.6009806 3.9560023799999997 -53.48912 0 0 0
2946 1443 5 0 2.44700004 4.670000115 -53.524119999999996 0 0 0
2994 1443 5 0 3.67899864 6.801978149999999 -53.6 0 0 0
3212 1443 5 0 9.8330186 6.0850086 -53.58502 0 0 0
2901 1443 5 0 1.2159982599999997 3.9560023799999997 -53.48912 0 0 0
3118 1443 5 0 7.3700063999999985 4.670000115 -53.524119999999996 0 0 0
2951 1443 5 0 2.4480008 6.0850086 -53.58502 0 0 0
2904 1443 5 0 1.2159982599999997 2.5380016199999997 -53.432 0 0 0
3121 1443 5 0 7.3700063999999985 1.82500131 -53.41002 0 0 0
3218 1443 5 0 9.8340036 0.4050000735 -53.38006 0 0 0
3076 1443 5 0 6.138992799999999 2.5380016199999997 -53.432 0 0 0
2958 1443 5 0 2.44900156 0.4050000735 -53.38006 0 0 0
3130 1443 5 0 7.3720158 0.4050000735 -53.38006 0 0 0
3036 1443 5 0 4.909003599999999 1.82500131 -53.41002 0 0 0
2991 1443 5 0 3.67800182 2.5380016199999997 -53.432 0 0 0
3209 1443 5 0 9.831994199999999 1.82500131 -53.41002 0 0 0
3164 1443 5 0 8.6009806 2.5380016199999997 -53.432 0 0 0
3045 1443 5 0 4.911013 0.4050000735 -53.38006 0 0 0
2949 1443 5 0 2.44700004 1.82500131 -53.41002 0 0 0
3293 1443 5 0 12.292996999999996 4.670000115 -53.524119999999996 0 0 0
3248 1443 5 0 11.061983399999999 3.9560023799999997 -53.48912 0 0 0
3299 1443 5 0 12.2950064 6.0850086 -53.58502 0 0 0
3254 1443 5 0 11.0639928 6.801978149999999 -53.6 0 0 0
3260 1443 5 0 11.065017199999996 8.209984200000001 -53.567099999999996 0 0 0
3296 1443 5 0 12.293981999999996 1.82500131 -53.41002 0 0 0
3251 1443 5 0 11.0630078 2.5380016199999997 -53.432 0 0 0
3305 1443 5 0 12.2959914 0.4050000735 -53.38006 0 0 0
3051 1443 5 0 4.911998 8.9349843 -53.49304 0 0 0
3224 1443 5 0 9.834988599999999 8.9349843 -53.49304 0 0 0
2963 1443 5 0 2.44999838 8.9349843 -53.49304 0 0 0
3136 1443 5 0 7.3730008 8.9349843 -53.49304 0 0 0
3006 1443 5 0 3.6799994 12.486021899999999 -53.1331 0 0 0
3054 1443 5 0 4.9149924 10.2930168 -53.23404 0 0 0
3009 1443 5 0 3.6849992599999997 11.0029788 -52.83602 0 0 0
3179 1443 5 0 8.604014399999999 12.486021899999999 -53.1331 0 0 0
3227 1443 5 0 9.837982999999998 10.2930168 -53.23404 0 0 0
2918 1443 5 0 1.21900054 12.486021899999999 -53.1331 0 0 0
2966 1443 5 0 2.4530006599999994 10.2930168 -53.23404 0 0 0
3182 1443 5 0 8.6079938 11.0029788 -52.83602 0 0 0
2921 1443 5 0 1.22299964 11.0029788 -52.83602 0 0 0
3139 1443 5 0 7.3759952 10.2930168 -53.23404 0 0 0
3092 1443 5 0 6.1419872 12.486021899999999 -53.1331 0 0 0
3095 1443 5 0 6.146005999999998 11.0029788 -52.83602 0 0 0
3311 1443 5 0 12.2970158 8.9349843 -53.49304 0 0 0
3266 1443 5 0 11.065017199999996 12.486021899999999 -53.1331 0 0 0
3314 1443 5 0 12.3000102 10.2930168 -53.23404 0 0 0
3269 1443 5 0 11.069981599999997 11.0029788 -52.83602 0 0 0
312 156 4 -0.78 1.2815270985344824 2.5210522701668254 -44.85325732215596 -2 0 0
39 19 3 0.2321 3.463552670055715 3.456857715851356 -49.38441630369262 -2 0 0
674 337 2 0.3591 3.598598750615858 7.552079075102288 -45.82879417365329 -2 1 0
75 37 3 0.2321 6.996004588136511 7.378759746353279 -49.816409968407285 -2 0 0
2798 1399 2 0.3591 7.367402520291963 2.577577302662569 -44.69086109855936 0 1 0
304 152 4 -0.78 7.929988814638221 2.8584359849990526 -49.03295922052076 -2 0 0
60 30 4 -0.78 8.482018719442964 7.237869755523778 -45.012797755157536 -2 0 0
74 37 2 0.3591 9.995808507511121 7.239333216396437 -49.4525945298404 -2 0 0
2786 1393 2 0.3591 8.787067464571996 1.1102136492554753 -13.267292955414792 0 2 0
673 337 1 0.1888 5.245294951982262 5.658783995473397 -46.82570180099541 -2 1 0
1832 916 4 -0.78 8.296483297755831 3.781753677089909 -4.760340566371712 -1 2 0
217 109 1 0.1888 11.863572179326189 2.027463203311702 -47.93020364243603 -2 0 0
73 37 1 0.1888 11.926736028553739 6.602709588409277 -47.67601679764759 -2 0 0
204 102 4 -0.78 3.4721240142225165 11.584682145818654 -13.420677834912986 -1 0 0
2976 1443 5 0 2.4769992 11.20998285 -44.91202 0 0 0
2881 1443 5 0 0.0059999896 11.194024050000001 -50.61408 0 0 0
2930 1443 5 0 1.24699818 11.2710048 -47.05108 0 0 0
3098 1443 5 0 6.1579836 11.13898665 -51.303020000000004 0 0 0
3146 1443 5 0 7.397980399999998 11.2609794 -49.1851 0 0 0
2979 1443 5 0 2.4790007199999997 11.258012699999998 -46.33806 0 0 0
2885 1443 5 0 0.0129999906 11.2609794 -49.1851 0 0 0
3101 1443 5 0 6.1690156 11.27299965 -48.47712 0 0 0
3149 1443 5 0 7.4010142000000005 11.20998285 -44.91202 0 0 0
3055 1443 5 0 4.9290188 11.194024050000001 -50.61408 0 0 0
2888 1443 5 0 0.0159999854 11.20998285 -44.91202 0 0 0
3104 1443 5 0 6.170000599999998 11.2710048 -47.05108 0 0 0
3152 1443 5 0 7.401999199999999 11.258012699999998 -46.33806 0 0 0
3058 1443 5 0 4.937017 11.2609794 -49.1851 0 0 0
2891 1443 5 0 0.0169999968 11.258012699999998 -46.33806 0 0 0
3012 1443 5 0 3.69599974 11.13898665 -51.303020000000004 0 0 0
3061 1443 5 0 4.938987 11.20998285 -44.91202 0 0 0
3015 1443 5 0 3.70700022 11.27299965 -48.47712 0 0 0
3064 1443 5 0 4.9400113999999995 11.258012699999998 -46.33806 0 0 0
3185 1443 5 0 8.6200108 11.13898665 -51.303020000000004 0 0 0
2970 1443 5 0 2.4680002399999994 11.194024050000001 -50.61408 0 0 0
3018 1443 5 0 3.7090017399999993 11.2710048 -47.05108 0 0 0
2924 1443 5 0 1.2350008799999999 11.13898665 -51.303020000000004 0 0 0
3188 1443 5 0 8.631003399999999 11.27299965 -48.47712 0 0 0
2973 1443 5 0 2.47500162 11.2609794 -49.1851 0 0 0
2927 1443 5 0 1.2460013599999995 11.27299965 -48.47712 0 0 0
3143 1443 5 0 7.3910066 11.194024050000001 -50.61408 0 0 0
3191 1443 5 0 8.6319884 11.2710048 -47.05108 0 0 0
3194 1443 5 0 8.6319884 11.1780141 -44.199 0 0 0
2934 1443 5 0 1.24699818 11.1780141 -44.199 0 0 0
3107 1443 5 0 6.170985600000001 11.1780141 -44.199 0 0 0
3021 1443 5 0 3.7090017399999993 11.1780141 -44.199 0 0 0
3318 1443 5 0 12.3139972 11.194024050000001 -50.61408 0 0 0
3272 1443 5 0 11.081013599999997 11.13898665 -51.303020000000004 0 0 0
3321 1443 5 0 12.321995399999999 11.2609794 -49.1851 0 0 0
3275 1443 5 0 11.0920062 11.27299965 -48.47712 0 0 0
3324 1443 5 0 12.3240048 11.20998285 -44.91202 0 0 0
3230 1443 5 0 9.8529944 11.194024050000001 -50.61408 0 0 0
3278 1443 5 0 11.094015599999999 11.2710048 -47.05108 0 0 0
3327 1443 5 0 12.3249898 11.258012699999998 -46.33806 0 0 0
3233 1443 5 0 9.8600076 11.2609794 -49.1851 0 0 0
3236 1443 5 0 9.862017 11.20998285 -44.91202 0 0 0
3239 1443 5 0 9.863987 11.258012699999998 -46.33806 0 0 0
3281 1443 5 0 11.094015599999999 11.1780141 -44.199 0 0 0
2799 1399 3 0.2321 10.363124492644138 2.2605258319418153 -44.41562891531829 0 1 0
2797 1399 1 0.1888 5.592715143600216 3.5709261265002117 -42.9149831322969 0 1 0
192 96 4 -0.78 2.3403252609523655 7.047567331256595 -41.09231867989876 -2 0 0
1958 979 2 0.3591 4.7314418693892355 1.1429531963214306 -37.911187589720214 2 0 0
2162 1081 2 0.3591 9.973716203675039 12.682586994877235 -21.33794992719863 -1 -3 0
955 477 3 0.2321 5.344054428559532 6.641136996920831 -37.99326193624292 -2 1 0
752 376 4 -0.78 8.167645910957955 3.018378843592072 -39.82425105896261 -3 0 0
954 477 2 0.3591 7.044426372316459 7.173283411443471 -40.43788469407848 -2 1 0
953 477 1 0.1888 9.69793972786274 6.77794911490473 -40.74214938360429 -2 1 0
1561 781 1 0.1888 11.281853529218791 5.303143004365743 -38.243519945245545 -4 0 0
1562 781 2 0.3591 10.14499032943788 3.9642054120484915 -36.19296195350994 -4 0 0
84 42 4 -0.78 1.9641617054681213 7.360877940230148 -49.69219386284403 -2 0 0
2138 1069 2 0.3591 12.091225914983205 12.18265880893837 -9.164342098170511 1 -2 0
1496 748 4 -0.78 1.5685905335488295 6.325933038089568 -4.895773549152594 -3 0 0
3024 1443 5 0 3.71099932 11.100982199999999 -42.77212 0 0 0
3027 1441 7 -0.18 3.7130008400000003 10.90799325 -39.94104 0 0 0
3197 1443 5 0 8.6339978 11.100982199999999 -42.77212 0 0 0
2982 1443 5 0 2.4800014800000003 11.05898805 -42.06302 0 0 0
3030 1441 8 0.15 3.7130008400000003 10.8209871 -38.851 0 0 0
3200 1441 7 -0.18 8.6369922 10.90799325 -39.94104 0 0 0
2937 1443 5 0 1.2489997 11.100982199999999 -42.77212 0 0 0
2985 1441 6 0.03 2.48199906 10.95801795 -40.6241 0 0 0
3155 1443 5 0 7.4040086 11.05898805 -42.06302 0 0 0
3203 1441 8 0.15 8.6369922 10.8209871 -38.851 0 0 0
2940 1441 7 -0.18 1.2519980400000001 10.90799325 -39.94104 0 0 0
2941 1441 8 0.15 1.2519980400000001 10.8209871 -38.851 0 0 0
2894 1443 5 0 0.0190000196 11.05898805 -42.06302 0 0 0
3110 1443 5 0 6.17201 11.100982199999999 -42.77212 0 0 0
3158 1441 6 0.03 7.4049936 10.95801795 -40.6241 0 0 0
2897 1441 6 0.03 0.0199999916 10.95801795 -40.6241 0 0 0
3113 1441 7 -0.18 6.1750044 10.90799325 -39.94104 0 0 0
3067 1443 5 0 4.9419813999999995 11.05898805 -42.06302 0 0 0
3115 1441 8 0.15 6.1750044 10.8209871 -38.851 0 0 0
3070 1441 6 0.03 4.9439908 10.95801795 -40.6241 0 0 0
1456 728 4 -0.78 9.624663641325341 8.380856016154084 -35.51968308556111 -1 1 0
104 52 4 -0.78 0.6970939094608612 8.925866140174522 -35.49655763183843 -3 1 0
3242 1443 5 0 9.8650114 11.05898805 -42.06302 0 0 0
3290 1441 8 0.15 11.097994999999997 10.8209871 -38.851 0 0 0
3245 1441 6 0.03 9.8669814 10.95801795 -40.6241 0 0 0
3330 1443 5 0 12.3269992 11.05898805 -42.06302 0 0 0
3284 1443 5 0 11.095985599999999 11.100982199999999 -42.77212 0 0 0
3333 1441 6 0.03 12.3290086 10.95801795 -40.6241 0 0 0
3287 1441 7 -0.18 11.097994999999997 10.90799325 -39.94104 0 0 0
2291 1145 3 0.2321 12.637120141026276 11.813675933562768 -35.44342262403373 1 1 0
1607 803 3 0.2321 2.4079711156212507 0.9238490561652375 -30.947729745274227 -1 -2 0
1055 527 3 0.2321 4.112074408490936 5.190688258335366 -33.67366064249113 -1 0 0
1900 950 4 -0.78 7.379153129145571 0.9402979545484162 -34.33068319396435 2 0 0
1054 527 2 0.3591 1.6150104337518212 5.813184986327202 -32.08375686297939 -1 0 0
1414 707 2 0.3591 6.793838432619051 3.0491603640687464 -29.737725233158926 -1 0 0
2108 1054 4 -0.78 1.0826281656641303 2.9823405586449163 -27.71120612401616 -2 -1 0
1415 707 3 0.2321 5.413837057472297 3.7429390759071977 -27.13678474652947 -2 0 0
2851 1425 3 0.2321 2.7810405372798606 6.884093950197385 -25.66078600366336 -3 1 0
839 419 3 0.2321 12.162015823230881 3.4080266393188947 -9.635934837129597 3 1 0
1563 781 3 0.2321 9.954285132647712 4.427316334632044 -33.209711342195135 -4 0 0
924 462 4 -0.78 10.88358529251022 4.205720680311945 -28.699017144546264 -2 1 0
2879 1439 3 0.2321 10.269349919661815 8.107041511802544 -30.75690697232594 -3 0 0
1413 707 1 0.1888 8.642882024307513 1.2351113991222324 -30.49947529096707 -1 0 0
2078 1039 2 0.3591 1.2901215953060796 12.092035701311811 -28.25153243338519 1 2 0
1959 979 3 0.2321 3.3858596085613515 2.956554313770203 -39.923868462971846 2 0 0
13 7 1 0.1888 12.179974620560696 7.877770034456882 -24.728982944713113 -1 -1 0
1827 913 3 0.2321 5.75948051800479 9.579788341509758 -33.41800194601071 -2 1 0
668 334 4 -0.78 4.820687973995261 7.524858304736703 -29.704289803854977 -2 0 0
38 19 2 0.3591 0.4672095565363555 3.041561840679212 -49.39348677779867 -2 0 0
2137 1069 1 0.1888 12.535092412990279 9.690247377479093 -10.102887235451423 1 -2 0
988 494 4 -0.78 10.629543663683464 9.422492956669203 -4.208448834277716 -1 1 0
2878 1439 2 0.3591 10.234504757014678 10.923040463184126 -31.86124412863008 -3 0 0
1877 939 1 0.1888 8.034366086381928 6.135265430584757 -27.27605474447249 -3 2 0
1348 674 4 -0.78 6.392436397247477 5.020421990118482 -22.667694730156544 -3 2 0
482 241 2 0.3591 1.500079606660913 2.8853211116742448 -22.41393041385448 -3 1 0
481 241 1 0.1888 3.327027941838305 3.0894930400388314 -24.39144696562389 -3 1 0
1399 699 3 0.2321 4.964360540551932 2.407384743642534 -18.22744965676405 -2 3 0
40 20 4 -0.78 5.481000601385319 6.841553997284183 -16.503424390194414 -3 0 0
2849 1425 1 0.1888 4.235907563959539 8.44825046700971 -20.964777976016947 -3 1 0
2850 1425 2 0.3591 2.3857941086273744 8.014073027061377 -22.88273777167598 -3 1 0
1398 699 2 0.3591 3.3743449823093656 3.1433090773271677 -15.761503424089994 -3 3 0
2357 1179 1 0.1888 5.49393418661234 0.9675284521550059 -10.898352934914227 -1 0 0
1771 885 3 0.2321 10.021600197881265 0.8814623059987631 -25.41669824831321 -2 0 0
1769 885 1 0.1888 6.509742417501012 1.4271770347519963 -21.54379514819621 -2 0 0
1770 885 2 0.3591 7.371293805528445 0.6400319602141108 -23.978570394779226 -2 0 0
1580 790 4 -0.78 12.519470677594624 9.21093270283176 -18.68736532911153 -2 0 0
2079 1039 3 0.2321 0.4584882848557045 9.86368037500335 -30.120607711568088 1 2 0
1361 681 1 0.1888 10.276921539496426 6.378871496582954 -22.2450148433068 -4 -1 0
1001 501 1 0.1888 1.5594438486010227 10.509284551994899 -4.9669932198029345 -3 2 0
1878 939 2 0.3591 7.525576211697777 8.375574526771194 -25.857552948521185 -3 1 0
1879 939 3 0.2321 6.474795250124914 10.988175897328288 -26.962449702703736 -3 1 0
2163 1081 3 0.2321 8.37197651374395 10.33862351230399 -20.29349305512746 -1 -3 0
274 137 2 0.3591 9.346023528961176 11.671581260283745 -0.9428991047913959 -2 -1 0
460 230 4 -0.78 10.919932923471496 11.033797204324495 -26.635741757041803 -3 -1 0
2869 1435 1 0.1888 1.2216722828086977 9.043828890769111 -18.249104525459142 -6 2 0
621 311 1 0.1888 0.28417716815312294 5.99600350919023 -37.86246986701313 -3 1 0
1155 577 3 0.2321 13.05062629458862 2.5498031631575007 -40.41197116635674 -1 -1 0
1053 527 1 0.1888 0.7733355144701952 6.072214796641229 -29.53140775112871 -1 0 0
473 237 1 0.1888 4.507269737393617 2.8168926645078267 -7.862875824487517 -4 2 0
1397 699 1 0.1888 4.427721245873204 3.302271777721043 -13.280550305477787 -3 3 0
2400 1200 4 -0.78 7.816847076878479 3.5551656991506033 -10.047262206489 -1 1 0
399 199 3 0.2321 3.3746132885469913 4.0239623964950715 -0.6500925111386968 0 1 0
2787 1393 3 0.2321 9.270364600444967 3.563261748324389 -14.970114915097064 0 2 0
1927 963 3 0.2321 3.8939141999595446 7.947290729171376 -9.133154967868943 -2 -1 0
1926 963 2 0.3591 5.071278586517324 7.73322018610191 -11.911393907932442 -2 -1 0
1925 963 1 0.1888 7.208013065950477 6.356558163545692 -12.821979887002247 -2 -1 0
838 419 2 0.3591 11.15696724339269 5.480317876396658 -7.674784481162344 3 1 0
2755 1377 3 0.2321 4.683038626173327 11.502523266461074 -18.2112825925196 2 0 0
113 57 1 0.1888 5.1612605170166646 0.005971848386976436 -49.59612514896577 -2 1 0
140 70 4 -0.78 8.532770038980221 9.969557507565591 -10.531579960884788 -2 0 0
1429 715 1 0.1888 7.149107185868315 10.616921631866225 -13.972085858633275 1 -3 0
1430 715 2 0.3591 8.949449314239194 9.259137272339201 -15.457073775952095 1 -3 0
2161 1081 1 0.1888 12.503088045155264 12.599095032974642 -22.278857327321358 -1 -3 0
1431 715 3 0.2321 11.632008867749027 8.18404559336552 -14.563386420167335 1 -3 0
474 237 2 0.3591 3.705111158979818 2.125480327888849 -5.379231229994705 -4 2 0
974 487 2 0.3591 6.332930490418029 7.848930919934234 -5.424272735882695 -1 -1 0
2272 1136 4 -0.78 1.1650896133124178 2.36941007270492 -35.530299891294085 -1 0 0
596 298 4 -0.78 10.164131471056251 0.016281191681905848 -19.005626582376532 -1 2 0
975 487 3 0.2321 6.323196738710999 10.788522031236734 -6.137949021840412 -1 -1 0
1362 681 2 0.3591 10.474115718214195 4.648439674367967 -20.18183312978374 -4 -1 0
973 487 1 0.1888 4.985417837656285 6.174539529834788 -3.7900686201798806 -1 -1 0
837 419 1 0.1888 12.426768996153536 7.7911489542281265 -7.0936974890672655 3 1 0
675 337 3 0.2321 0.6484541148165575 7.404501054043432 -45.1764964434096 -2 1 0
475 237 3 0.2321 4.916781730323598 0.7081574885294346 -2.9972837907319825 -4 2 0
2689 1345 1 0.1888 8.669174775650632 6.8848474564031 -2.4603974603397774 -3 0 0
1002 501 2 0.3591 1.2338970540895589 9.867414785048606 -2.3646822532876577 -3 2 0
968 484 4 -0.78 5.592361120137341 8.888218259703372 -0.7548396137656255 1 0 0
1003 501 3 0.2321 0.3054233551124072 7.481187193167384 -0.7539435913481196 -3 2 0
2077 1039 1 0.1888 1.8962167834451518 12.118300214271095 -25.62057089647979 1 1 0
2067 1033 3 0.2321 0.019655012232564224 1.423701433394714 -13.279301793360245 0 0 0
792 396 4 -0.78 1.0404764014753376 5.507389421310122 -12.215543919019906 -2 2 0
1826 913 2 0.3591 3.6092241309460706 11.544254456187431 -32.60075357158303 -2 1 0
2870 1435 2 0.3591 0.3586936048419342 7.474199145371783 -16.228824924059218 -6 2 0
2699 1349 3 0.2321 12.790274138112146 4.84032203483163 -2.9976971190708914 -3 1 0
1715 857 3 0.2321 0.48255458197229234 11.651854172310411 -9.565441078375956 1 0 0
2359 1179 3 0.2321 9.158078985795527 0.2493345323094559 -7.382383571213994 -1 0 0
2690 1345 2 0.3591 9.936320539971176 7.076878403507421 -0.08395780637826533 -3 0 0
291 145 3 0.2321 12.989687753502825 7.370316292170378 -43.35723344916263 -2 -1 0
2411 1205 3 0.2321 9.91069417489446 0.1800989772416853 -2.7568250214631593 -1 -1 0
1243 621 3 0.2321 12.449638073774189 1.2719818977400563 -31.681790179798988 -1 2 0
1363 681 3 0.2321 12.933594173545165 4.26659500724988 -18.462593489380865 -4 -1 0
437 219 1 0.1888 0.9172889621430119 0.01690191922842388 -24.693132959714987 -5 2 0
1819 909 3 0.2321 5.866275416985002 4.533806042200306 8.322497851051985 0 1 0
1340 670 4 -0.78 8.967368412610004 1.6393835815690638 7.411127053954008 -2 -1 0
2216 1108 4 -0.78 2.5082123472919964 1.8154239409823247 7.8708625837841995 -2 -1 0
325 163 1 0.1888 2.320323543556523 8.921345783280122 7.141673987732695 -3 1 0
397 199 1 0.1888 3.904231538864166 4.384616231061634 4.269737516484948 0 1 0
2691 1345 3 0.2321 9.251759852637946 6.314468987294391 2.7622208819276506 -3 0 0
648 324 4 -0.78 5.788148490637197 7.899235243683647 5.4630576704531 -1 1 0
178 89 2 0.3591 11.778576465596922 0.6103241807081113 1.8637660860022875 -3 3 0
398 199 2 0.3591 4.774578054117943 5.086278453415004 1.812062504659675 0 1 0
1062 531 2 0.3591 0.8469740080501148 11.749175531277652 25.106665476390525 0 0 0
797 399 1 0.1888 9.00084428798541 11.97626725055962 22.899116763018732 0 -2 0
996 498 4 -0.78 0.3151193021922054 5.843278343943572 3.6605534267441286 0 1 0
1579 789 3 0.2321 2.7265764454096884 10.187694184210416 3.2436462307672675 -3 2 0
326 163 2 0.3591 2.059238348142543 10.120077114676452 9.54685125522924 -4 1 0
275 137 3 0.2321 8.607381872577418 11.712516535940672 1.99024863853686 -1 -1 0
2679 1339 3 0.2321 8.282468688711768 10.67898758110055 8.373584966452432 -2 0 0
2685 1343 1 0.1888 11.22001718235502 10.276878370030062 5.133878782051131 -2 1 0
715 357 3 0.2321 11.374351631772951 0.4580376358688716 23.042821190028878 -1 0 0
2686 1343 2 0.3591 12.747948047527615 8.18400882616276 4.375377471242084 -2 0 0
1795 897 3 0.2321 2.1461683208812308 5.420402356941865 10.277958204341232 -2 0 0
1818 909 2 0.3591 8.50569999187982 5.780530003311407 9.116060322171073 0 1 0
2706 1353 2 0.3591 11.82032122458941 4.282209672326609 17.02519544669545 1 -1 0
1794 897 2 0.3591 1.27830944650199 3.2600508110867 12.20936367871849 -2 0 0
1271 635 3 0.2321 2.150082888934756 7.561164703883171 13.995251355517638 -3 0 0
2464 1232 4 -0.78 5.969439601033729 9.213497806483288 11.743688976972297 -2 1 0
2865 1433 1 0.1888 12.606301668712856 1.5941824157217552 40.89830812512518 -2 1 0
484 242 4 -0.78 5.811491174484184 4.3426434066854345 13.89433421592627 -2 0 0
667 333 3 0.2321 9.32891929308569 7.137648632101142 13.793255977212414 -3 0 0
1270 635 2 0.3591 0.3312610844476593 9.222773228594711 15.750691224616295 -3 0 0
70 35 2 0.3591 3.101370854683442 2.5328828613037153 16.98470773645781 -3 2 0
4703 1444 5 0 12.2970158 8.9349843 53.49303999999999 0 0 0
1817 909 1 0.1888 10.870508521000643 4.573336305976507 9.606329625563152 0 1 0
862 431 2 0.3591 6.23707932757271 0.22273981027989262 10.95259635666591 -4 -1 0
1124 562 4 -0.78 12.310740000504167 3.611895420472932 12.861300663051196 -1 2 0
1096 548 4 -0.78 12.19585905756548 8.63623334860232 9.222223532597024 0 -1 0
1303 651 3 0.2321 12.188029714442584 6.417794063579701 44.42214909209328 -1 0 0
327 163 3 0.2321 0.3288727144186351 12.532017802325777 10.129089821872913 -4 1 0
666 333 2 0.3591 9.564058362282534 10.144871044359352 14.021176740051477 -3 0 0
665 333 1 0.1888 7.585753512445194 11.8849619837202 14.611424684151489 -3 0 0
1946 973 2 0.3591 6.014030343626309 0.08371826937303202 22.48886998792198 -4 1 0
4658 1444 5 0 11.065017199999996 12.486021899999999 53.13309999999998 0 0 0
2705 1353 1 0.1888 9.800598705145143 2.837107990400173 15.965761048385668 1 -1 0
69 35 1 0.1888 3.724626755599257 3.095541276869646 19.55082678616403 -2 2 0
2832 1416 4 -0.78 3.8181363610223973 3.5315495849649627 24.64358961726009 -4 2 0
259 129 3 0.2321 5.864283606331766 8.914634363666766 16.47446098817477 0 -1 0
734 367 2 0.3591 3.297056572001969 7.9709599655678645 24.80035407383277 -2 -1 0
258 129 2 0.3591 6.588775357381842 6.549584592449998 18.21580390768397 0 -1 0
1552 776 4 -0.78 6.927053084270391 10.30550192749159 25.801930704179984 0 0 0
680 340 4 -0.78 7.759859702525068 2.6908013291335298 19.309274114431613 -3 1 0
257 129 1 0.1888 5.540730857475772 6.344347182761223 20.695618385968242 0 -1 0
348 174 4 -0.78 7.520428688673706 2.2375162853530193 0.6861296611653533 -5 0 0
352 176 4 -0.78 9.551803681305765 10.13614211872606 18.769597728034544 -2 1 0
733 367 1 0.1888 2.120007719145433 6.462001785624414 22.895728232625626 -2 -1 0
1648 824 4 -0.78 2.312487716353077 8.496481540235587 19.65087137616036 -1 1 0
1007 503 3 0.2321 5.739968243654028 11.489411878842887 20.53905016260765 0 0 0
1367 683 3 0.2321 2.11011492459622 7.899285268891009 33.150356351304204 0 5 0
4661 1444 5 0 11.069981599999997 11.0029788 52.836019999999984 0 0 0
798 399 2 0.3591 11.283339292903221 10.575039143960069 23.24083871141544 0 -2 0
1578 789 2 0.3591 3.9669293232496896 12.538864306335935 4.687304030796304 -3 2 0
298 149 2 0.3591 2.695020136449965 1.6364515604945868 28.737180437853542 -2 1 0
297 149 1 0.1888 2.4269218114765123 3.7410291461178207 30.40717334713433 -2 1 0
735 367 3 0.2321 3.5935800733706107 7.169415119076956 27.702116388697355 -2 -1 0
2854 1427 2 0.3591 12.260835522230002 6.220608016907896 34.517736231136944 -1 -1 0
856 428 4 -0.78 7.56274402332652 7.16633926708594 29.664792897031575 0 1 0
850 425 2 0.3591 5.376308965068436 1.0478478762375474 4.4982558397808425 -2 2 0
2147 1073 3 0.2321 8.025259750395119 6.044119789258984 23.408418892964548 -1 0 0
2515 1257 3 0.2321 7.565062826619254 2.7568497670862455 30.961803090210136 -3 -1 0
1143 571 3 0.2321 6.363075965666954 3.965352931920794 36.22537090154031 -3 0 0
1365 683 1 0.1888 5.219260273557347 10.412287384873553 29.88654969562143 0 5 0
861 431 1 0.1888 8.893392894416818 0.6001612538577128 11.255168575544248 -4 -1 0
71 35 3 0.2321 0.9344518633087726 0.5555271006228676 16.246364607118515 -3 2 0
2146 1073 2 0.3591 8.032066208390969 4.483625072542478 25.99983445283511 -1 0 0
1536 768 4 -0.78 9.570965678388319 1.1134279691670115 35.61476120574694 -1 2 0
1141 571 1 0.1888 1.6511884410148299 1.9087408562186554 37.17884959361024 -3 0 0
2581 1291 1 0.1888 10.06898476672182 10.925218101711828 29.712214281801607 -4 0 0
1366 683 2 0.3591 4.5866263141890915 9.424136692906194 32.3182840173599 0 5 0
1392 696 4 -0.78 3.784271047707227 12.686116222993597 15.529528352699272 0 3 0
136 68 4 -0.78 1.2137064809693512 11.094761682794587 29.719932728301107 -5 -2 0
4528 1444 5 0 7.3730008 8.9349843 53.49303999999999 0 0 0
1481 741 1 0.1888 11.725186725018222 10.283534306591559 35.49168841616717 -1 -1 0
2347 1173 3 0.2321 12.099257926366612 2.4524398635513096 49.29542549626261 -2 0 0
2145 1073 1 0.1888 10.037806194912346 4.200466212600906 27.785003208621138 0 0 0
1300 650 4 -0.78 12.42385396684882 4.44004896558904 24.734893963106376 -1 2 0
1793 897 1 0.1888 0.02372289789175418 0.9434843971353553 11.618151081718537 -2 0 0
1142 571 2 0.3591 3.3634890232649846 3.638552918537286 36.0101852266719 -3 0 0
1234 617 2 0.3591 1.2479821595078564 7.001319827072008 40.16445390564269 -6 -1 0
1233 617 1 0.1888 0.18260960892989814 5.843198451116667 42.358476726348925 -6 -1 0
1712 856 4 -0.78 3.6784614966349873 2.845201060954017 40.49064507164641 -1 0 0
2095 1047 3 0.2321 6.048073233638794 7.512268815222765 41.622416804962704 -1 0 0
2867 1433 3 0.2321 7.929554801388232 3.7107537564667337 40.689967096295845 -2 1 0
2094 1047 2 0.3591 7.824486658189142 7.036500848616938 44.02421301877757 -1 0 0
1880 940 4 -0.78 5.64205286569052 8.629119809623635 36.55808870231069 -1 1 0
2855 1427 3 0.2321 9.571793872125609 7.2789973797588505 33.623593107475415 -1 -1 0
2866 1433 2 0.3591 10.488057634397622 2.5760985036415094 39.54225407210001 -2 1 0
952 476 4 -0.78 10.27739307164199 7.1734450091800905 38.6111816944044 0 1 0
1482 741 2 0.3591 9.109783893438971 10.952926715839872 35.45193880050176 -2 -1 0
4416 1444 5 0 3.71099932 11.100982199999999 42.77211999999999 0 0 0
4419 1442 7 -0.18 3.7130008400000003 10.90799325 39.94103999999998 0 0 0
4589 1444 5 0 8.6339978 11.100982199999999 42.77211999999999 0 0 0
4374 1444 5 0 2.4800014800000003 11.05898805 42.06301999999999 0 0 0
4422 1442 8 0.15 3.7130008400000003 10.8209871 38.851 0 0 0
4592 1442 7 -0.18 8.6369922 10.90799325 39.94103999999998 0 0 0
4329 1444 5 0 1.2489997 11.100982199999999 42.77211999999999 0 0 0
4377 1442 6 0.03 2.48199906 10.95801795 40.624099999999984 0 0 0
4547 1444 5 0 7.4040086 11.05898805 42.06301999999999 0 0 0
4595 1442 8 0.15 8.6369922 10.8209871 38.851 0 0 0
4332 1442 7 -0.18 1.2519980400000001 10.90799325 39.94103999999998 0 0 0
4333 1442 8 0.15 1.2519980400000001 10.8209871 38.851 0 0 0
4286 1444 5 0 0.0190000196 11.05898805 42.06301999999999 0 0 0
4502 1444 5 0 6.17201 11.100982199999999 42.77211999999999 0 0 0
4550 1442 6 0.03 7.4049936 10.95801795 40.624099999999984 0 0 0
4289 1442 6 0.03 0.0199999916 10.95801795 40.624099999999984 0 0 0
4505 1442 7 -0.18 6.1750044 10.90799325 39.94103999999998 0 0 0
4459 1444 5 0 4.9419813999999995 11.05898805 42.06301999999999 0 0 0
4507 1442 8 0.15 6.1750044 10.8209871 38.851 0 0 0
4462 1442 6 0.03 4.9439908 10.95801795 40.624099999999984 0 0 0
851 425 3 0.2321 2.7484109210421375 0.4384576595732518 3.1295266044541536 -2 2 0
4634 1444 5 0 9.8650114 11.05898805 42.06301999999999 0 0 0
4682 1442 8 0.15 11.097994999999997 10.8209871 38.851 0 0 0
4637 1442 6 0.03 9.8669814 10.95801795 40.624099999999984 0 0 0
4722 1444 5 0 12.3269992 11.05898805 42.06301999999999 0 0 0
4676 1444 5 0 11.095985599999999 11.100982199999999 42.77211999999999 0 0 0
4725 1442 6 0.03 12.3290086 10.95801795 40.624099999999984 0 0 0
4679 1442 7 -0.18 11.097994999999997 10.90799325 39.94103999999998 0 0 0
4706 1444 5 0 12.3000102 10.2930168 53.234039999999986 0 0 0
1757 879 1 0.1888 3.9563793377458927 2.285466171553644 44.458833910653794 -2 0 0
452 226 4 -0.78 13.078458956308802 10.736372324975083 0.8985559462751058 -1 1 0
2555 1277 3 0.2321 2.080519756694876 6.806374652715448 50.077748689746564 -1 1 0
2736 1368 4 -0.78 3.1317675450210465 7.366199527973056 45.40060414565851 -2 0 0
2748 1374 4 -0.78 4.281576231363773 3.079750696379456 49.14997658592276 -2 0 0
1758 879 2 0.3591 1.342045892333717 2.4765856538822444 45.105929940479825 -2 0 0
2554 1277 2 0.3591 4.974420429128452 7.452647657681667 49.47917115990131 -1 1 0
2553 1277 1 0.1888 7.148597919941477 6.04132054749403 50.234887125931635 -1 1 0
2093 1047 1 0.1888 6.945859609733437 6.113419409467259 46.40453543362471 -2 0 0
2345 1173 1 0.1888 7.505619858798309 2.321317770736743 46.77169069294084 -2 0 0
2346 1173 2 0.3591 9.094628022135208 2.4955559838036963 48.947625744412356 -2 0 0
2044 1022 4 -0.78 10.658562244338125 2.475020415745126 44.31534304316873 -2 0 0
2680 1340 4 -0.78 10.31879220845264 7.183746861335669 48.59247971290526 -2 0 0
4586 1444 5 0 8.6319884 11.1780141 44.19900000000001 0 0 0
4326 1444 5 0 1.24699818 11.1780141 44.19900000000001 0 0 0
4499 1444 5 0 6.170985600000001 11.1780141 44.19900000000001 0 0 0
4413 1444 5 0 3.7090017399999993 11.1780141 44.19900000000001 0 0 0
4273 1444 5 0 0.0059999896 11.194024050000001 50.61408 0 0 0
4368 1444 5 0 2.4769992 11.20998285 44.91202 0 0 0
4322 1444 5 0 1.24699818 11.2710048 47.05107999999998 0 0 0
4490 1444 5 0 6.1579836 11.13898665 51.30302 0 0 0
4538 1444 5 0 7.397980399999998 11.2609794 49.185100000000006 0 0 0
4371 1444 5 0 2.4790007199999997 11.258012699999998 46.33805999999998 0 0 0
4277 1444 5 0 0.0129999906 11.2609794 49.185100000000006 0 0 0
4493 1444 5 0 6.1690156 11.27299965 48.47712 0 0 0
4541 1444 5 0 7.4010142000000005 11.20998285 44.91202 0 0 0
4447 1444 5 0 4.9290188 11.194024050000001 50.61408 0 0 0
4280 1444 5 0 0.0159999854 11.20998285 44.91202 0 0 0
4496 1444 5 0 6.170000599999998 11.2710048 47.05107999999998 0 0 0
4544 1444 5 0 7.401999199999999 11.258012699999998 46.33805999999998 0 0 0
4450 1444 5 0 4.937017 11.2609794 49.185100000000006 0 0 0
4283 1444 5 0 0.0169999968 11.258012699999998 46.33805999999998 0 0 0
4404 1444 5 0 3.69599974 11.13898665 51.30302 0 0 0
4453 1444 5 0 4.938987 11.20998285 44.91202 0 0 0
4407 1444 5 0 3.70700022 11.27299965 48.47712 0 0 0